 #  C with hexagonal graphite structure with box vectors H1=[2-1-10], H2=[-12-10], H3=[0001].
 
        2880  atoms
           1  atom types
 
      0.000000000000      98.400000000000  xlo xhi
      0.000000000000      85.216899732389  ylo yhi
      0.000000000000      20.000000000000  zlo zhi
 
Masses
 
            1   12.01100000             # C
 
Atoms # atomic
 
         1    1        0.000000000000       0.000000000000       0.000000000000
         2    1        0.000000000000       1.420281662206       0.000000000000
         3    1        1.230000000000       2.130422493310       0.000000000000
         4    1        1.230000000000       3.550704155516       0.000000000000
         5    1        2.460000000000       0.000000000000       0.000000000000
         6    1        2.460000000000       1.420281662206       0.000000000000
         7    1        3.690000000000       3.550704155516       0.000000000000
         8    1        4.920000000000       0.000000000000       0.000000000000
         9    1        4.920000000000       1.420281662206       0.000000000000
        10    1        6.150000000000       2.130422493310       0.000000000000
        11    1        6.150000000000       3.550704155516       0.000000000000
        12    1        7.380000000000       0.000000000000       0.000000000000
        13    1        7.380000000000       1.420281662206       0.000000000000
        14    1        8.610000000000       2.130422493310       0.000000000000
        15    1        8.610000000000       3.550704155516       0.000000000000
        16    1        9.840000000000       0.000000000000       0.000000000000
        17    1        9.840000000000       1.420281662206       0.000000000000
        18    1       11.070000000000       2.130422493310       0.000000000000
        19    1       12.300000000000       0.000000000000       0.000000000000
        20    1       12.300000000000       1.420281662206       0.000000000000
        21    1       13.530000000000       2.130422493310       0.000000000000
        22    1       13.530000000000       3.550704155516       0.000000000000
        23    1       14.760000000000       0.000000000000       0.000000000000
        24    1       14.760000000000       1.420281662206       0.000000000000
        25    1       15.990000000000       2.130422493310       0.000000000000
        26    1       15.990000000000       3.550704155516       0.000000000000
        27    1       17.220000000000       0.000000000000       0.000000000000
        28    1       18.450000000000       3.550704155516       0.000000000000
        29    1       19.680000000000       0.000000000000       0.000000000000
        30    1       20.910000000000       2.130422493310       0.000000000000
        31    1       22.140000000000       0.000000000000       0.000000000000
        32    1       22.140000000000       1.420281662206       0.000000000000
        33    1       23.370000000000       2.130422493310       0.000000000000
        34    1       23.370000000000       3.550704155516       0.000000000000
        35    1       24.600000000000       1.420281662206       0.000000000000
        36    1       25.830000000000       2.130422493310       0.000000000000
        37    1       27.060000000000       1.420281662206       0.000000000000
        38    1       28.290000000000       2.130422493310       0.000000000000
        39    1       28.290000000000       3.550704155516       0.000000000000
        40    1       29.520000000000       0.000000000000       0.000000000000
        41    1       29.520000000000       1.420281662206       0.000000000000
        42    1       30.750000000000       2.130422493310       0.000000000000
        43    1       31.980000000000       0.000000000000       0.000000000000
        44    1       31.980000000000       1.420281662206       0.000000000000
        45    1       33.210000000000       2.130422493310       0.000000000000
        46    1       33.210000000000       3.550704155516       0.000000000000
        47    1       34.440000000000       1.420281662206       0.000000000000
        48    1       35.670000000000       2.130422493310       0.000000000000
        49    1       35.670000000000       3.550704155516       0.000000000000
        50    1       36.900000000000       0.000000000000       0.000000000000
        51    1       36.900000000000       1.420281662206       0.000000000000
        52    1       38.130000000000       2.130422493310       0.000000000000
        53    1       38.130000000000       3.550704155516       0.000000000000
        54    1       39.360000000000       0.000000000000       0.000000000000
        55    1       39.360000000000       1.420281662206       0.000000000000
        56    1       40.590000000000       2.130422493310       0.000000000000
        57    1       40.590000000000       3.550704155516       0.000000000000
        58    1       41.820000000000       0.000000000000       0.000000000000
        59    1       41.820000000000       1.420281662206       0.000000000000
        60    1       43.050000000000       2.130422493310       0.000000000000
        61    1       43.050000000000       3.550704155516       0.000000000000
        62    1       44.280000000000       0.000000000000       0.000000000000
        63    1       44.280000000000       1.420281662206       0.000000000000
        64    1       45.510000000000       2.130422493310       0.000000000000
        65    1       45.510000000000       3.550704155516       0.000000000000
        66    1       46.740000000000       0.000000000000       0.000000000000
        67    1       46.740000000000       1.420281662206       0.000000000000
        68    1       47.970000000000       2.130422493310       0.000000000000
        69    1       47.970000000000       3.550704155516       0.000000000000
        70    1       49.200000000000       0.000000000000       0.000000000000
        71    1       49.200000000000       1.420281662206       0.000000000000
        72    1       50.430000000000       2.130422493310       0.000000000000
        73    1       50.430000000000       3.550704155516       0.000000000000
        74    1       51.660000000000       0.000000000000       0.000000000000
        75    1       51.660000000000       1.420281662206       0.000000000000
        76    1       52.890000000000       2.130422493310       0.000000000000
        77    1       52.890000000000       3.550704155516       0.000000000000
        78    1       54.120000000000       1.420281662206       0.000000000000
        79    1       55.350000000000       2.130422493310       0.000000000000
        80    1       55.350000000000       3.550704155516       0.000000000000
        81    1       56.580000000000       0.000000000000       0.000000000000
        82    1       56.580000000000       1.420281662206       0.000000000000
        83    1       57.810000000000       2.130422493310       0.000000000000
        84    1       57.810000000000       3.550704155516       0.000000000000
        85    1       59.040000000000       0.000000000000       0.000000000000
        86    1       59.040000000000       1.420281662206       0.000000000000
        87    1       60.270000000000       2.130422493310       0.000000000000
        88    1       60.270000000000       3.550704155516       0.000000000000
        89    1       61.500000000000       1.420281662206       0.000000000000
        90    1       62.730000000000       2.130422493310       0.000000000000
        91    1       62.730000000000       3.550704155516       0.000000000000
        92    1       63.960000000000       0.000000000000       0.000000000000
        93    1       63.960000000000       1.420281662206       0.000000000000
        94    1       65.190000000000       2.130422493310       0.000000000000
        95    1       65.190000000000       3.550704155516       0.000000000000
        96    1       66.420000000000       0.000000000000       0.000000000000
        97    1       66.420000000000       1.420281662206       0.000000000000
        98    1       67.650000000000       2.130422493310       0.000000000000
        99    1       67.650000000000       3.550704155516       0.000000000000
       100    1       68.880000000000       0.000000000000       0.000000000000
       101    1       68.880000000000       1.420281662206       0.000000000000
       102    1       70.110000000000       2.130422493310       0.000000000000
       103    1       71.340000000000       1.420281662206       0.000000000000
       104    1       72.570000000000       2.130422493310       0.000000000000
       105    1       72.570000000000       3.550704155516       0.000000000000
       106    1       73.800000000000       0.000000000000       0.000000000000
       107    1       73.800000000000       1.420281662206       0.000000000000
       108    1       75.030000000000       2.130422493310       0.000000000000
       109    1       75.030000000000       3.550704155516       0.000000000000
       110    1       76.260000000000       0.000000000000       0.000000000000
       111    1       76.260000000000       1.420281662206       0.000000000000
       112    1       77.490000000000       2.130422493310       0.000000000000
       113    1       77.490000000000       3.550704155516       0.000000000000
       114    1       78.720000000000       0.000000000000       0.000000000000
       115    1       78.720000000000       1.420281662206       0.000000000000
       116    1       79.950000000000       2.130422493310       0.000000000000
       117    1       79.950000000000       3.550704155516       0.000000000000
       118    1       81.180000000000       0.000000000000       0.000000000000
       119    1       81.180000000000       1.420281662206       0.000000000000
       120    1       82.410000000000       2.130422493310       0.000000000000
       121    1       82.410000000000       3.550704155516       0.000000000000
       122    1       83.640000000000       0.000000000000       0.000000000000
       123    1       83.640000000000       1.420281662206       0.000000000000
       124    1       84.870000000000       2.130422493310       0.000000000000
       125    1       86.100000000000       0.000000000000       0.000000000000
       126    1       87.330000000000       2.130422493310       0.000000000000
       127    1       87.330000000000       3.550704155516       0.000000000000
       128    1       88.560000000000       0.000000000000       0.000000000000
       129    1       88.560000000000       1.420281662206       0.000000000000
       130    1       89.790000000000       2.130422493310       0.000000000000
       131    1       89.790000000000       3.550704155516       0.000000000000
       132    1       91.020000000000       1.420281662206       0.000000000000
       133    1       92.250000000000       2.130422493310       0.000000000000
       134    1       92.250000000000       3.550704155516       0.000000000000
       135    1       93.480000000000       0.000000000000       0.000000000000
       136    1       93.480000000000       1.420281662206       0.000000000000
       137    1       94.710000000000       2.130422493310       0.000000000000
       138    1       95.940000000000       0.000000000000       0.000000000000
       139    1       95.940000000000       1.420281662206       0.000000000000
       140    1       97.170000000000       2.130422493310       0.000000000000
       141    1       97.170000000000       3.550704155516       0.000000000000
       142    1        0.000000000000       4.260844986619       0.000000000000
       143    1        0.000000000000       5.681126648826       0.000000000000
       144    1        1.230000000000       6.391267479929       0.000000000000
       145    1        1.230000000000       7.811549142136       0.000000000000
       146    1        2.460000000000       4.260844986619       0.000000000000
       147    1        2.460000000000       5.681126648826       0.000000000000
       148    1        3.690000000000       6.391267479929       0.000000000000
       149    1        3.690000000000       7.811549142136       0.000000000000
       150    1        4.920000000000       4.260844986619       0.000000000000
       151    1        4.920000000000       5.681126648826       0.000000000000
       152    1        6.150000000000       6.391267479929       0.000000000000
       153    1        6.150000000000       7.811549142136       0.000000000000
       154    1        7.380000000000       4.260844986619       0.000000000000
       155    1        7.380000000000       5.681126648826       0.000000000000
       156    1        8.610000000000       6.391267479929       0.000000000000
       157    1        8.610000000000       7.811549142136       0.000000000000
       158    1        9.840000000000       4.260844986619       0.000000000000
       159    1        9.840000000000       5.681126648826       0.000000000000
       160    1       11.070000000000       6.391267479929       0.000000000000
       161    1       11.070000000000       7.811549142136       0.000000000000
       162    1       12.300000000000       4.260844986619       0.000000000000
       163    1       12.300000000000       5.681126648826       0.000000000000
       164    1       13.530000000000       6.391267479929       0.000000000000
       165    1       13.530000000000       7.811549142136       0.000000000000
       166    1       14.760000000000       4.260844986619       0.000000000000
       167    1       15.990000000000       6.391267479929       0.000000000000
       168    1       15.990000000000       7.811549142136       0.000000000000
       169    1       17.220000000000       4.260844986619       0.000000000000
       170    1       17.220000000000       5.681126648826       0.000000000000
       171    1       18.450000000000       6.391267479929       0.000000000000
       172    1       19.680000000000       4.260844986619       0.000000000000
       173    1       20.910000000000       6.391267479929       0.000000000000
       174    1       20.910000000000       7.811549142136       0.000000000000
       175    1       22.140000000000       4.260844986619       0.000000000000
       176    1       23.370000000000       6.391267479929       0.000000000000
       177    1       23.370000000000       7.811549142136       0.000000000000
       178    1       24.600000000000       4.260844986619       0.000000000000
       179    1       24.600000000000       5.681126648826       0.000000000000
       180    1       25.830000000000       6.391267479929       0.000000000000
       181    1       25.830000000000       7.811549142136       0.000000000000
       182    1       27.060000000000       4.260844986619       0.000000000000
       183    1       27.060000000000       5.681126648826       0.000000000000
       184    1       28.290000000000       6.391267479929       0.000000000000
       185    1       28.290000000000       7.811549142136       0.000000000000
       186    1       29.520000000000       4.260844986619       0.000000000000
       187    1       30.750000000000       6.391267479929       0.000000000000
       188    1       30.750000000000       7.811549142136       0.000000000000
       189    1       31.980000000000       4.260844986619       0.000000000000
       190    1       31.980000000000       5.681126648826       0.000000000000
       191    1       33.210000000000       6.391267479929       0.000000000000
       192    1       33.210000000000       7.811549142136       0.000000000000
       193    1       34.440000000000       4.260844986619       0.000000000000
       194    1       34.440000000000       5.681126648826       0.000000000000
       195    1       35.670000000000       6.391267479929       0.000000000000
       196    1       35.670000000000       7.811549142136       0.000000000000
       197    1       36.900000000000       4.260844986619       0.000000000000
       198    1       36.900000000000       5.681126648826       0.000000000000
       199    1       38.130000000000       6.391267479929       0.000000000000
       200    1       38.130000000000       7.811549142136       0.000000000000
       201    1       39.360000000000       4.260844986619       0.000000000000
       202    1       39.360000000000       5.681126648826       0.000000000000
       203    1       40.590000000000       6.391267479929       0.000000000000
       204    1       40.590000000000       7.811549142136       0.000000000000
       205    1       41.820000000000       4.260844986619       0.000000000000
       206    1       41.820000000000       5.681126648826       0.000000000000
       207    1       43.050000000000       6.391267479929       0.000000000000
       208    1       43.050000000000       7.811549142136       0.000000000000
       209    1       44.280000000000       4.260844986619       0.000000000000
       210    1       44.280000000000       5.681126648826       0.000000000000
       211    1       45.510000000000       6.391267479929       0.000000000000
       212    1       45.510000000000       7.811549142136       0.000000000000
       213    1       46.740000000000       5.681126648826       0.000000000000
       214    1       47.970000000000       6.391267479929       0.000000000000
       215    1       47.970000000000       7.811549142136       0.000000000000
       216    1       49.200000000000       4.260844986619       0.000000000000
       217    1       49.200000000000       5.681126648826       0.000000000000
       218    1       50.430000000000       6.391267479929       0.000000000000
       219    1       50.430000000000       7.811549142136       0.000000000000
       220    1       51.660000000000       4.260844986619       0.000000000000
       221    1       51.660000000000       5.681126648826       0.000000000000
       222    1       52.890000000000       6.391267479929       0.000000000000
       223    1       52.890000000000       7.811549142136       0.000000000000
       224    1       54.120000000000       4.260844986619       0.000000000000
       225    1       54.120000000000       5.681126648826       0.000000000000
       226    1       55.350000000000       6.391267479929       0.000000000000
       227    1       55.350000000000       7.811549142136       0.000000000000
       228    1       56.580000000000       4.260844986619       0.000000000000
       229    1       56.580000000000       5.681126648826       0.000000000000
       230    1       57.810000000000       6.391267479929       0.000000000000
       231    1       57.810000000000       7.811549142136       0.000000000000
       232    1       59.040000000000       4.260844986619       0.000000000000
       233    1       60.270000000000       7.811549142136       0.000000000000
       234    1       61.500000000000       4.260844986619       0.000000000000
       235    1       61.500000000000       5.681126648826       0.000000000000
       236    1       62.730000000000       6.391267479929       0.000000000000
       237    1       62.730000000000       7.811549142136       0.000000000000
       238    1       63.960000000000       4.260844986619       0.000000000000
       239    1       65.190000000000       6.391267479929       0.000000000000
       240    1       65.190000000000       7.811549142136       0.000000000000
       241    1       66.420000000000       4.260844986619       0.000000000000
       242    1       66.420000000000       5.681126648826       0.000000000000
       243    1       67.650000000000       7.811549142136       0.000000000000
       244    1       68.880000000000       4.260844986619       0.000000000000
       245    1       68.880000000000       5.681126648826       0.000000000000
       246    1       70.110000000000       6.391267479929       0.000000000000
       247    1       70.110000000000       7.811549142136       0.000000000000
       248    1       71.340000000000       4.260844986619       0.000000000000
       249    1       71.340000000000       5.681126648826       0.000000000000
       250    1       72.570000000000       6.391267479929       0.000000000000
       251    1       72.570000000000       7.811549142136       0.000000000000
       252    1       73.800000000000       4.260844986619       0.000000000000
       253    1       75.030000000000       6.391267479929       0.000000000000
       254    1       75.030000000000       7.811549142136       0.000000000000
       255    1       76.260000000000       4.260844986619       0.000000000000
       256    1       77.490000000000       6.391267479929       0.000000000000
       257    1       77.490000000000       7.811549142136       0.000000000000
       258    1       78.720000000000       4.260844986619       0.000000000000
       259    1       78.720000000000       5.681126648826       0.000000000000
       260    1       79.950000000000       6.391267479929       0.000000000000
       261    1       79.950000000000       7.811549142136       0.000000000000
       262    1       81.180000000000       4.260844986619       0.000000000000
       263    1       81.180000000000       5.681126648826       0.000000000000
       264    1       82.410000000000       6.391267479929       0.000000000000
       265    1       82.410000000000       7.811549142136       0.000000000000
       266    1       83.640000000000       4.260844986619       0.000000000000
       267    1       83.640000000000       5.681126648826       0.000000000000
       268    1       84.870000000000       6.391267479929       0.000000000000
       269    1       84.870000000000       7.811549142136       0.000000000000
       270    1       86.100000000000       4.260844986619       0.000000000000
       271    1       86.100000000000       5.681126648826       0.000000000000
       272    1       87.330000000000       6.391267479929       0.000000000000
       273    1       87.330000000000       7.811549142136       0.000000000000
       274    1       88.560000000000       4.260844986619       0.000000000000
       275    1       88.560000000000       5.681126648826       0.000000000000
       276    1       89.790000000000       7.811549142136       0.000000000000
       277    1       91.020000000000       4.260844986619       0.000000000000
       278    1       91.020000000000       5.681126648826       0.000000000000
       279    1       92.250000000000       6.391267479929       0.000000000000
       280    1       92.250000000000       7.811549142136       0.000000000000
       281    1       93.480000000000       4.260844986619       0.000000000000
       282    1       93.480000000000       5.681126648826       0.000000000000
       283    1       94.710000000000       6.391267479929       0.000000000000
       284    1       94.710000000000       7.811549142136       0.000000000000
       285    1       95.940000000000       4.260844986619       0.000000000000
       286    1       95.940000000000       5.681126648826       0.000000000000
       287    1       97.170000000000       6.391267479929       0.000000000000
       288    1       97.170000000000       7.811549142136       0.000000000000
       289    1        0.000000000000       8.521689973239       0.000000000000
       290    1        0.000000000000       9.941971635445       0.000000000000
       291    1        1.230000000000      12.072394128755       0.000000000000
       292    1        2.460000000000       8.521689973239       0.000000000000
       293    1        2.460000000000       9.941971635445       0.000000000000
       294    1        3.690000000000      10.652112466549       0.000000000000
       295    1        3.690000000000      12.072394128755       0.000000000000
       296    1        4.920000000000       8.521689973239       0.000000000000
       297    1        4.920000000000       9.941971635445       0.000000000000
       298    1        6.150000000000      12.072394128755       0.000000000000
       299    1        7.380000000000       8.521689973239       0.000000000000
       300    1        7.380000000000       9.941971635445       0.000000000000
       301    1        8.610000000000      10.652112466549       0.000000000000
       302    1        8.610000000000      12.072394128755       0.000000000000
       303    1        9.840000000000       8.521689973239       0.000000000000
       304    1        9.840000000000       9.941971635445       0.000000000000
       305    1       11.070000000000      12.072394128755       0.000000000000
       306    1       12.300000000000       8.521689973239       0.000000000000
       307    1       12.300000000000       9.941971635445       0.000000000000
       308    1       13.530000000000      10.652112466549       0.000000000000
       309    1       13.530000000000      12.072394128755       0.000000000000
       310    1       14.760000000000       8.521689973239       0.000000000000
       311    1       14.760000000000       9.941971635445       0.000000000000
       312    1       15.990000000000      10.652112466549       0.000000000000
       313    1       17.220000000000       8.521689973239       0.000000000000
       314    1       18.450000000000      10.652112466549       0.000000000000
       315    1       18.450000000000      12.072394128755       0.000000000000
       316    1       19.680000000000       8.521689973239       0.000000000000
       317    1       19.680000000000       9.941971635445       0.000000000000
       318    1       22.140000000000       8.521689973239       0.000000000000
       319    1       22.140000000000       9.941971635445       0.000000000000
       320    1       23.370000000000      10.652112466549       0.000000000000
       321    1       23.370000000000      12.072394128755       0.000000000000
       322    1       24.600000000000       8.521689973239       0.000000000000
       323    1       24.600000000000       9.941971635445       0.000000000000
       324    1       25.830000000000      10.652112466549       0.000000000000
       325    1       25.830000000000      12.072394128755       0.000000000000
       326    1       27.060000000000       8.521689973239       0.000000000000
       327    1       27.060000000000       9.941971635445       0.000000000000
       328    1       28.290000000000      10.652112466549       0.000000000000
       329    1       28.290000000000      12.072394128755       0.000000000000
       330    1       29.520000000000       8.521689973239       0.000000000000
       331    1       29.520000000000       9.941971635445       0.000000000000
       332    1       30.750000000000      10.652112466549       0.000000000000
       333    1       30.750000000000      12.072394128755       0.000000000000
       334    1       31.980000000000       8.521689973239       0.000000000000
       335    1       31.980000000000       9.941971635445       0.000000000000
       336    1       33.210000000000      10.652112466549       0.000000000000
       337    1       34.440000000000       8.521689973239       0.000000000000
       338    1       34.440000000000       9.941971635445       0.000000000000
       339    1       35.670000000000      10.652112466549       0.000000000000
       340    1       35.670000000000      12.072394128755       0.000000000000
       341    1       36.900000000000       8.521689973239       0.000000000000
       342    1       38.130000000000      10.652112466549       0.000000000000
       343    1       38.130000000000      12.072394128755       0.000000000000
       344    1       39.360000000000       8.521689973239       0.000000000000
       345    1       39.360000000000       9.941971635445       0.000000000000
       346    1       40.590000000000      10.652112466549       0.000000000000
       347    1       40.590000000000      12.072394128755       0.000000000000
       348    1       41.820000000000       8.521689973239       0.000000000000
       349    1       41.820000000000       9.941971635445       0.000000000000
       350    1       43.050000000000      10.652112466549       0.000000000000
       351    1       43.050000000000      12.072394128755       0.000000000000
       352    1       44.280000000000       8.521689973239       0.000000000000
       353    1       44.280000000000       9.941971635445       0.000000000000
       354    1       45.510000000000      10.652112466549       0.000000000000
       355    1       45.510000000000      12.072394128755       0.000000000000
       356    1       46.740000000000       8.521689973239       0.000000000000
       357    1       46.740000000000       9.941971635445       0.000000000000
       358    1       47.970000000000      10.652112466549       0.000000000000
       359    1       47.970000000000      12.072394128755       0.000000000000
       360    1       49.200000000000       8.521689973239       0.000000000000
       361    1       49.200000000000       9.941971635445       0.000000000000
       362    1       50.430000000000      10.652112466549       0.000000000000
       363    1       50.430000000000      12.072394128755       0.000000000000
       364    1       51.660000000000       8.521689973239       0.000000000000
       365    1       51.660000000000       9.941971635445       0.000000000000
       366    1       52.890000000000      10.652112466549       0.000000000000
       367    1       52.890000000000      12.072394128755       0.000000000000
       368    1       54.120000000000       8.521689973239       0.000000000000
       369    1       54.120000000000       9.941971635445       0.000000000000
       370    1       55.350000000000      10.652112466549       0.000000000000