ITEM: TIMESTEP
0
ITEM: NUMBER OF ATOMS
2400
ITEM: BOX BOUNDS pp pp pp
0.0000000000000000e+00 9.8400000000000006e+01
0.0000000000000000e+00 8.5216899732388995e+01
0.0000000000000000e+00 2.0000000000000000e+01
ITEM: ATOMS id type x y z
1 1 1.38826 2.23082 0
4 1 1.99657 1.04156 0
6 1 5.15496 1.21069 0
7 1 6.23398 2.03085 0
9 1 7.48621 1.53189 0
11 1 9.86236 0.0773652 0
12 1 9.93136 1.4767 0
13 1 11.1499 2.10719 0
14 1 12.3418 0.0160124 0
15 1 12.3828 1.42688 0
16 1 13.583 2.12213 0
19 1 14.7718 1.39508 0
20 1 15.9779 2.11223 0
22 1 17.2081 0.0506976 0
23 1 17.198 1.44001 0
24 1 18.4003 2.14564 0
27 1 19.6051 1.44198 0
26 1 19.5974 0.05997 0
28 1 20.7663 2.21795 0
30 1 22.0286 0.016308 0
33 1 24.5193 0.130422 0
31 1 24.5105 2.88494 0
34 1 24.5072 1.50307 0
37 1 29.3971 0.331186 0
38 1 29.5756 1.66421 0
40 1 31.7535 1.59383 0
41 1 33.1571 1.42222 0
42 1 34.5051 1.49268 0
43 1 35.7625 2.01473 0
2325 1 37.7444 0.0579395 0
45 1 37.0412 1.32059 0
46 1 38.1031 2.25598 0
50 1 41.5766 0.0400362 0
51 1 43.099 2.18599 0
54 1 45.5595 2.15805 0
53 1 44.0163 0.398178 0
56 1 48.0417 2.15577 0
2 1 1.24698 3.6106 0
122 1 0.0241683 4.2916 0
124 1 1.23322 6.43415 0
126 1 2.4196 4.35667 0
127 1 2.45116 5.7469 0
123 1 0.0310277 5.69765 0
5 1 3.66194 3.73964 0
8 1 5.99795 3.40822 0
128 1 3.70699 6.39501 0
130 1 4.93993 4.30721 0
131 1 4.95793 5.70849 0
132 1 6.1846 6.39539 0
10 1 8.388 3.55592 0
134 1 7.40479 5.71813 0
135 1 8.53436 4.89831 0
136 1 9.82109 5.40933 0
137 1 10.8672 6.24975 0
139 1 12.4008 4.19714 0
17 1 13.5711 3.51989 0
21 1 15.9873 3.51178 0
140 1 13.5343 6.36613 0
142 1 14.7784 4.22814 0
143 1 14.7313 5.62915 0
144 1 15.9261 6.38495 0
25 1 18.429 3.54704 0
146 1 17.2043 4.21795 0
147 1 17.0979 5.61573 0
149 1 19.6272 4.29392 0
150 1 19.571 5.64383 0
29 1 20.8618 3.61447 0
152 1 22.0933 4.2789 0
153 1 22.1059 5.63302 0
32 1 23.2998 3.57677 0
35 1 25.7498 3.50924 0
154 1 24.6 5.68113 0
36 1 28.2267 3.71812 0
156 1 26.9242 4.24271 0
157 1 26.8139 5.59578 0
159 1 29.4868 4.28404 0
39 1 30.6993 3.63629 0
160 1 29.5799 5.65169 0
163 1 32.0839 3.36406 0
44 1 35.7966 3.46319 0
164 1 33.2978 6.4049 0
166 1 34.6 4.22478 0
167 1 34.4618 5.62361 0
168 1 35.6658 6.35457 0
47 1 38.1891 3.61506 0
170 1 36.9616 4.27015 0
171 1 36.8988 5.68119 0
172 1 38.108 6.41376 0
175 1 39.2839 5.66982 0
49 1 40.6598 3.72706 0
174 1 39.3906 4.28064 0
176 1 41.9343 4.27547 0
177 1 42.0214 5.68765 0
52 1 43.1271 3.53743 0
55 1 45.5568 3.50733 0
178 1 43.2076 6.37721 0
179 1 44.3621 4.21663 0
180 1 44.3611 5.62955 0
57 1 47.953 3.56773 0
181 1 46.7394 4.24195 0
182 1 46.7179 5.59273 0
184 1 49.1454 4.31131 0
125 1 1.27142 7.83444 0
253 1 0.0678178 8.56586 0
257 1 2.50189 8.50628 0
129 1 3.70352 7.79769 0
133 1 6.14958 7.78708 0
259 1 4.91812 8.46406 0
263 1 7.27066 8.6339 0
138 1 10.8943 7.59142 0
267 1 10.1075 8.67038 0
141 1 13.512 7.73895 0
145 1 15.9084 7.79271 0
273 1 14.6846 8.50872 0
148 1 18.3593 7.91789 0
277 1 17.0925 8.54074 0
280 1 19.6446 8.47141 0
151 1 20.8818 7.80906 0
283 1 22.1146 8.41832 0
284 1 22.2195 9.82753 0
155 1 25.992 7.68363 0
287 1 24.7573 8.29427 0
288 1 24.6263 9.69341 0
158 1 28.4279 7.72297 0
290 1 27.2255 8.37376 0
291 1 27.0954 9.78067 0
161 1 29.6152 7.0277 0
162 1 30.7994 7.7309 0
294 1 31.957 8.47805 0
165 1 33.201 7.8111 0
169 1 35.6324 7.75969 0
297 1 34.4435 8.48144 0
173 1 38.1387 7.80676 0
301 1 36.8765 8.40608 0
304 1 39.2944 8.49738 0
306 1 41.5748 8.57047 0
307 1 42.2301 9.70522 0
309 1 44.28 8.52169 0
183 1 47.8052 7.62358 0
310 1 47.1501 8.75844 0
254 1 0.0475797 9.96207 0
255 1 1.25826 10.6955 0
256 1 1.23269 12.0987 0
258 1 2.41792 9.90748 0
375 1 2.37233 12.9303 0
371 1 0.00641529 12.802 0
260 1 5.02458 9.85898 0
261 1 6.14083 10.7203 0
262 1 5.88102 12.079 0
264 1 7.37945 10.0409 0
265 1 8.6238 10.6532 0
266 1 8.678 12.0492 0
384 1 9.82944 12.8374 0
268 1 9.87502 10.0235 0
269 1 11.0574 10.7761 0
270 1 11.0605 12.1572 0
271 1 12.2397 10.1153 0
388 1 12.2619 12.8672 0
272 1 13.5795 12.4666 0
274 1 14.777 9.90709 0
275 1 15.9249 10.715 0
276 1 15.949 12.1107 0
391 1 14.8665 12.9787 0
278 1 17.1274 9.97014 0
279 1 18.4269 10.5171 0
394 1 17.1555 12.7139 0
397 1 18.7432 12.6113 0
281 1 19.6867 9.89567 0
282 1 20.968 10.4772 0
285 1 23.4581 10.4258 0
286 1 23.6388 11.783 0
289 1 25.8617 10.3922 0
403 1 24.3923 12.8714 0
407 1 27.1336 12.8109 0
411 1 29.4084 12.6861 0
292 1 30.8766 10.7873 0
293 1 30.6548 12.171 0
295 1 31.9327 9.88023 0
413 1 31.7393 12.9856 0
296 1 33.2002 10.4613 0
298 1 34.454 9.86537 0
299 1 35.543 10.7084 0
300 1 35.7995 12.0722 0
416 1 34.7209 12.9181 0
302 1 38.5153 10.6118 0
303 1 38.3913 11.9596 0
419 1 37.1139 12.4916 0
305 1 40.7797 12.1339 0
421 1 39.5174 12.7658 0
425 1 41.9637 12.8279 0
308 1 42.8852 10.8401 0
311 1 46.4948 9.89319 0
312 1 47.8575 12.309 0
431 1 46.6789 12.9543 0
434 1 49.1811 12.4677 0
373 1 1.19064 14.9824 0
374 1 1.1116 16.3313 0
376 1 2.43815 14.337 0
372 1 0.0226808 14.2038 0
379 1 5.31923 13.2656 0
377 1 3.58418 15.1225 0
378 1 4.64546 15.9385 0
381 1 7.36926 14.1388 0
382 1 8.50961 14.8633 0
383 1 8.44764 16.2652 0
385 1 9.73267 14.2172 0
386 1 10.8994 14.9506 0
387 1 10.8643 16.3165 0
389 1 12.0872 14.248 0
390 1 13.2527 16.3011 0
392 1 15.1943 14.381 0
393 1 15.8942 15.5027 0
395 1 17.9693 14.109 0
396 1 18.2473 16.2566 0
398 1 19.5757 13.9781 0
399 1 20.8766 14.2709 0
400 1 22.1904 14.419 0
401 1 23.4459 14.9783 0
402 1 23.5025 16.3375 0
404 1 24.5921 14.2205 0
405 1 25.8211 14.8377 0
406 1 25.9058 16.2417 0
408 1 27.0445 14.1531 0
409 1 28.1631 15.0019 0
414 1 33.264 15.0654 0
417 1 33.7832 13.8493 0
420 1 38.2811 14.819 0
422 1 39.4747 14.1804 0
423 1 40.6781 14.9287 0
424 1 40.7167 16.3183 0
426 1 41.8908 14.2006 0
428 1 44.24 14.3848 0
429 1 45.4224 15.0299 0
432 1 46.6139 14.3412 0
433 1 47.776 15.039 0
497 1 0 18.4637 0
380 1 5.82723 16.5706 0
498 1 3.55781 19.3423 0
500 1 4.80668 18.8652 0
501 1 6.0471 19.3448 0
503 1 7.15508 16.7929 0
504 1 8.59324 19.1428 0
506 1 9.64605 16.9937 0
507 1 9.69345 18.3804 0
508 1 10.8997 19.0735 0
510 1 12.0797 16.9695 0
511 1 12.0636 18.3453 0
512 1 13.2615 18.9822 0
513 1 14.5654 19.0279 0
514 1 15.9203 19.0894 0
516 1 16.8864 16.5363 0
517 1 16.5686 17.8812 0
519 1 19.388 16.9717 0
520 1 20.2149 18.0272 0
521 1 21.1287 19.0694 0
523 1 22.9039 17.5047 0
524 1 22.4918 18.7975 0
410 1 28.2393 16.4013 0
527 1 27.0195 17.0886 0
528 1 26.9663 18.4331 0
530 1 29.4098 17.1159 0
531 1 29.4012 18.4677 0
412 1 30.6246 16.4356 0
533 1 31.8791 17.0066 0
534 1 31.9113 18.3835 0
415 1 33.1206 16.4271 0
418 1 35.4966 16.6726 0
535 1 32.9345 19.3312 0
536 1 34.2279 17.2801 0
537 1 34.2058 18.7251 0
538 1 35.4817 19.3401 0
539 1 36.694 17.3213 0
540 1 36.7544 18.7377 0
541 1 38.0532 19.2432 0
543 1 39.1043 18.3864 0
542 1 39.6043 17.1418 0
545 1 41.8996 17.0431 0
546 1 41.7822 18.3975 0
427 1 43.1839 16.5366 0
430 1 45.5596 16.4111 0
547 1 44.4184 17.1787 0
548 1 44.4695 18.5265 0
553 1 48.74 18.0181 0
550 1 46.7856 16.9747 0
551 1 48.2335 19.2282 0
604 1 0.0803609 21.0675 0
499 1 2.7229 20.355 0
502 1 7.25218 19.925 0
505 1 8.6426 20.7212 0
509 1 10.9966 20.467 0
609 1 9.8739 21.3186 0
610 1 10.0138 22.7103 0
613 1 12.2519 21.1042 0
614 1 12.382 22.4679 0
615 1 14.8333 22.1938 0
515 1 16.4466 20.3519 0
518 1 18.7188 20.8342 0
618 1 17.4431 21.2798 0
619 1 17.1616 22.6375 0
522 1 20.8495 20.4203 0
624 1 21.5842 21.5338 0
625 1 21.9641 22.8545 0
525 1 23.4266 19.7704 0
526 1 25.4815 20.1582 0
627 1 24.9645 21.3623 0
628 1 24.6457 22.7135 0
529 1 28.7092 20.5099 0
635 1 29.5058 22.7429 0
532 1 31.0926 21.0107 0
634 1 29.7442 21.3756 0
638 1 32.3979 20.6242 0
641 1 36.9593 22.7532 0
645 1 39.3531 22.7367 0
544 1 40.5328 20.5756 0
644 1 39.3731 21.3212 0
648 1 41.7416 21.2359 0
649 1 41.8351 22.6414 0
549 1 45.5744 20.5777 0
652 1 44.3688 21.236 0
653 1 44.2692 22.6385 0
661 1 49.1062 22.7466 0
552 1 48.0447 20.5995 0
656 1 46.8102 21.2498 0
657 1 46.7282 22.6612 0
660 1 49.1951 21.3789 0
605 1 1.23 23.4346 0
724 1 3.37935 25.8157 0
606 1 3.75614 24.56 0
607 1 8.86409 23.4639 0
608 1 7.95685 24.4155 0
729 1 7.51839 25.6564 0
611 1 11.2728 23.3361 0
612 1 11.4954 24.7009 0
734 1 11.898 25.9489 0
616 1 15.8483 23.0859 0
617 1 15.5437 24.4304 0
737 1 15.1184 25.6856 0
621 1 19.617 23.2025 0
620 1 18.2962 23.4152 0
622 1 20.8913 23.7134 0
623 1 20.9207 25.0703 0
743 1 19.7535 25.7506 0
746 1 22.137 25.7034 0
626 1 23.3217 23.1267 0
629 1 25.7123 23.5959 0
630 1 25.5702 24.9378 0
631 1 26.9912 23.0374 0
632 1 28.3044 23.4586 0
633 1 28.4666 24.8565 0
636 1 30.6531 23.5574 0
637 1 30.7963 24.9417 0
756 1 29.6027 25.654 0
760 1 32.0031 25.5991 0
639 1 33.172 23.4963 0
640 1 33.1771 24.8428 0
764 1 34.3435 25.6054 0
642 1 38.1257 23.4332 0
643 1 38.1597 24.8335 0
768 1 37.1017 25.7295 0
646 1 40.6266 23.3694 0
647 1 40.6747 24.765 0
772 1 39.4405 25.3972 0
774 1 41.8736 25.4574 0
650 1 43.0506 23.315 0
651 1 43.0474 24.7082 0
654 1 45.4949 23.3307 0
655 1 45.4868 24.7224 0
776 1 44.2565 25.3681 0
658 1 47.897 23.4217 0
659 1 47.9001 24.8232 0
780 1 46.6632 25.4864 0
783 1 49.1154 25.5326 0
721 1 0.46793 26.7296 0
722 1 1.52437 27.6128 0
723 1 1.17665 28.946 0
725 1 2.77167 27.0116 0
726 1 5.11325 26.9031 0
727 1 6.25184 27.6217 0
728 1 6.18244 28.9919 0
730 1 7.52184 27.0313 0
731 1 8.76195 27.6252 0
732 1 10.0055 28.2095 0
733 1 11.1609 28.8529 0
735 1 13.7704 27.7469 0
736 1 13.5488 29.1316 0
738 1 14.99 27.0525 0
739 1 16.1688 27.8288 0
740 1 15.9723 29.2255 0
741 1 17.3711 27.2197 0
742 1 18.6601 29.0218 0
744 1 21.0965 27.8301 0
745 1 21.0219 29.2159 0
747 1 22.2521 27.0658 0
748 1 23.4377 27.7303 0
749 1 23.4289 29.124 0
750 1 24.6643 27.0743 0
751 1 25.9133 27.6729 0
752 1 25.9066 29.0733 0
753 1 27.1599 27.0638 0
754 1 28.3935 27.7151 0
755 1 28.3614 29.1122 0
757 1 29.594 27.0308 0
758 1 30.8027 27.7182 0
759 1 30.7766 29.1134 0
761 1 32.0077 27.0025 0
762 1 33.2123 27.7156 0
763 1 33.1756 29.1166 0
765 1 34.4207 26.9976 0
766 1 35.6175 27.6827 0
767 1 35.5306 29.0733 0
769 1 36.8595 27.0973 0
770 1 37.9478 27.9419 0
771 1 39.0607 28.6535 0
773 1 40.216 29.3013 0
775 1 41.8907 26.8083 0
777 1 44.2956 26.7473 0
778 1 45.4269 27.5485 0
779 1 45.2143 28.8878 0
781 1 46.6432 26.8945 0
782 1 47.8818 27.5371 0
784 1 49.1297 26.9169 0
839 1 0.0921817 29.8095 0
840 1 0.351551 31.1777 0
841 1 1.59911 31.7866 0
843 1 2.6835 30.9785 0
844 1 4.99027 29.719 0
845 1 4.98371 31.07 0
846 1 5.78117 32.1414 0
848 1 7.34202 29.6853 0
849 1 8.52566 32.0714 0
851 1 12.2863 29.7126 0
852 1 12.2862 31.1129 0
853 1 12.7706 32.371 0
855 1 14.7544 29.8764 0
856 1 16.0614 31.9798 0
858 1 17.2927 31.3954 0
859 1 18.5506 32.0291 0
862 1 19.6409 31.1784 0
861 1 19.7723 29.7946 0
863 1 22.2461 29.8904 0
864 1 22.2706 31.2399 0
866 1 24.6713 29.7398 0
867 1 24.7363 31.1221 0
868 1 25.9042 31.8629 0
870 1 27.1257 29.779 0
871 1 27.1288 31.1823 0
872 1 28.3453 31.8814 0
874 1 29.5686 29.8132 0
875 1 29.5721 31.2107 0
876 1 30.7902 31.908 0
878 1 31.976 29.8168 0
879 1 31.9932 31.2096 0
880 1 33.1958 31.9176 0
882 1 34.3698 29.8353 0
883 1 34.4016 31.2174 0
884 1 35.6177 31.888 0
886 1 36.8865 31.2613 0
887 1 38.1086 31.9096 0
890 1 41.237 30.1308 0
891 1 42.0985 31.1455 0
892 1 43.1863 31.9819 0
894 1 44.5411 30.0191 0
895 1 44.4295 31.377 0
896 1 45.6163 32.0742 0
898 1 46.79 31.4114 0
842 1 1.80558 33.1374 0
966 1 2.41958 34.3095 0
967 1 2.56777 35.6697 0
963 1 0.214317 35.6752 0
847 1 6.08302 33.4756 0
970 1 4.97301 34.3122 0
971 1 4.93243 35.6866 0
850 1 8.5323 33.4234 0
974 1 7.32197 34.1263 0
975 1 7.32106 35.535 0
978 1 9.6987 34.1088 0
980 1 12.4485 34.7713 0
981 1 11.6573 35.8157 0
854 1 13.2966 33.674 0
857 1 15.9625 33.3904 0
983 1 14.6763 33.896 0
860 1 18.5303 33.4348 0
985 1 17.2326 34.0129 0
987 1 19.6696 34.1547 0
988 1 22.2059 34.3285 0
989 1 21.3512 35.3251 0
865 1 23.3864 33.6847 0
869 1 25.8527 33.229 0
991 1 24.7327 34.0196 0
992 1 25.0466 35.3625 0
873 1 28.3341 33.2851 0
995 1 27.0866 33.8837 0
877 1 30.8135 33.3076 0
997 1 29.565 33.9289 0
999 1 32.0032 34.0252 0
1000 1 32.003 35.3753 0
881 1 33.2024 33.3128 0
885 1 35.6167 33.2984 0
1002 1 34.4138 33.9975 0
1003 1 34.468 35.3774 0
888 1 38.1057 33.2951 0
1006 1 36.8804 33.9346 0
889 1 40.7315 33.3576 0
1008 1 39.5405 35.3475 0
1011 1 41.9061 34.0252 0
1012 1 41.9174 35.4157 0
1009 1 40.695 36.0508 0
893 1 43.1275 33.3696 0
897 1 45.5346 33.4404 0
1015 1 44.3141 34.1104 0
1016 1 44.3231 35.512 0
1024 1 49.1418 35.5089 0
1023 1 49.187 34.1337 0
1019 1 46.6804 34.2134 0
1020 1 46.7435 35.5971 0
964 1 1.39942 36.3786 0
965 1 1.33456 37.7547 0
1081 1 0.0820111 38.3377 0
1084 1 2.52882 38.4401 0
968 1 3.74878 36.3714 0
969 1 3.74896 37.7574 0
972 1 6.15613 36.3265 0
973 1 6.17582 37.7281 0
1088 1 4.96762 38.4505 0
976 1 8.50184 36.2802 0
977 1 8.5941 37.6748 0
1092 1 7.39472 38.4209 0
1096 1 9.80193 38.3418 0
979 1 11.0594 37.7635 0
1099 1 12.3033 38.365 0
982 1 13.568 37.7749 0
984 1 15.9849 37.6758 0
1102 1 14.8221 38.4109 0
986 1 18.565 37.5349 0
1105 1 17.2525 37.2691 0
1107 1 19.3934 38.5856 0
1110 1 22.2566 38.3986 0
990 1 23.4866 37.8163 0
993 1 25.8203 36.4459 0
994 1 25.8542 37.7951 0
1114 1 24.6853 38.5538 0
996 1 28.3543 36.6055 0
1119 1 29.4357 37.425 0
998 1 30.5901 37.98 0
1121 1 31.9819 38.2932 0
1001 1 32.8743 37.2921 0
1004 1 34.997 36.5972 0
1005 1 35.8456 37.6183 0
1007 1 38.2003 38.1743 0
1126 1 36.8738 38.5298 0
1010 1 40.6361 37.4391 0
1130 1 39.53 38.199 0
1013 1 43.0849 36.1662 0
1014 1 43.1374 37.5641 0
1017 1 45.5147 36.2823 0
1018 1 45.5118 37.6967 0
1134 1 44.2733 38.3746 0
1021 1 47.9695 36.2411 0
1022 1 47.9011 37.6339 0
1137 1 46.7355 38.4109 0
1085 1 2.59629 39.824 0
1208 1 2.46677 42.5971 0
1086 1 3.76569 40.5744 0
1087 1 3.70782 41.9583 0
1089 1 4.96632 39.8548 0
1090 1 6.17201 40.5483 0
1091 1 6.15746 41.9518 0
1093 1 7.36851 39.8285 0
1094 1 8.5785 40.5284 0
1095 1 8.59734 41.9152 0
1097 1 9.72527 39.739 0
1098 1 11.038 41.9394 0
1100 1 12.3496 39.78 0
1101 1 13.5559 40.4358 0
1103 1 14.8275 39.8242 0
1104 1 15.9598 40.5529 0
1106 1 18.539 40.7995 0
1108 1 19.5891 39.9589 0
1229 1 17.1169 42.5872 0
1109 1 20.9002 40.3844 0
1111 1 22.1432 39.7932 0
1112 1 23.3002 40.5583 0
1113 1 23.1309 41.9437 0
1115 1 24.584 39.9511 0
1116 1 25.7299 40.6699 0
1244 1 27.1646 42.5847 0
1117 1 28.4895 40.3004 0
1118 1 27.7666 41.3936 0
1122 1 32.3655 39.6133 0
1120 1 30.75 41.8983 0
1125 1 35.4309 40.447 0
1124 1 33.6382 41.9377 0
1123 1 32.9243 40.8152 0
1129 1 38.0771 42.049 0
1128 1 37.8021 40.6943 0
1127 1 36.6569 39.8927 0
1132 1 41.82 39.7679 0
1131 1 40.4791 42.0177 0
1136 1 45.531 40.4534 0
1135 1 44.3368 39.7749 0
1133 1 42.7199 41.9564 0
1139 1 47.9487 40.4892 0
1138 1 46.7844 39.8123 0
1269 1 49.1099 42.4939 0
1206 1 1.4194 44.7433 0
1083 1 1.29696 43.3574 0
1205 1 0.0334965 42.7617 0
1209 1 3.76155 44.738 0
1211 1 4.91517 44.0445 0
1212 1 6.17961 44.6425 0
1210 1 4.92285 42.644 0
1214 1 7.43265 44.0212 0
1215 1 8.63512 44.7302 0
1213 1 7.39589 42.6219 0
1217 1 9.80241 42.6125 0
1218 1 9.84993 44.0277 0
1219 1 11.0746 44.7496 0
1222 1 12.3042 44.0248 0
1221 1 12.2314 42.6153 0
1223 1 13.5105 44.736 0
1226 1 14.7428 44.0308 0
1227 1 15.9895 44.7045 0
1225 1 14.7384 42.6719 0
1230 1 17.1688 43.9402 0
1231 1 18.4333 44.5814 0
1234 1 19.5364 43.6877 0
1237 1 22.3035 44.1257 0
1233 1 20.5158 42.7108 0
1236 1 21.9382 42.7658 0
1238 1 23.4743 44.8396 0
1241 1 24.6218 44.0615 0
1242 1 25.8433 44.71 0
1240 1 24.3425 42.6913 0
1245 1 27.0261 43.9604 0
1246 1 28.2019 44.7119 0
1248 1 30.75 44.7389 0
1249 1 33.2294 44.7596 0
1251 1 34.4258 42.9779 0
1254 1 36.9555 44.2233 0
1255 1 38.1745 44.9169 0
1258 1 39.349 44.1299 0
1257 1 39.3174 42.7122 0
1253 1 36.9347 42.8651 0
1259 1 40.5759 44.8166 0
1261 1 41.7877 44.1306 0
1262 1 42.9036 43.2952 0
1263 1 44.2051 43.7747 0
1264 1 45.3394 44.5605 0
1266 1 46.6698 44.1618 0
1267 1 47.9775 44.6208 0
1270 1 49.1323 43.8763 0
1207 1 1.37707 46.1347 0
1326 1 0.097411 46.6882 0
1328 1 2.50779 46.8833 0
1329 1 3.28401 48.3171 0
1331 1 4.13639 46.882 0
1332 1 4.91432 48.3151 0
1333 1 6.07107 49.0184 0
1216 1 8.63473 46.0811 0
1335 1 7.32576 48.3665 0
1336 1 8.55475 48.9792 0
1220 1 11.1974 46.185 0
1339 1 12.3795 46.9985 0
1340 1 12.6703 48.3956 0
1224 1 13.515 46.1533 0
1228 1 16.0046 46.1123 0
1342 1 14.77 46.7414 0
1232 1 18.3444 46.0181 0
1344 1 17.1893 46.8631 0
1345 1 17.0571 48.2633 0
1235 1 21.0323 46.1123 0
1346 1 19.6885 48.2789 0
1347 1 20.8684 48.9378 0
1349 1 22.172 46.8456 0
1350 1 22.0842 48.2448 0
1239 1 23.429 46.2059 0
1243 1 25.8574 46.1352 0
1351 1 23.2693 48.9782 0
1353 1 24.6529 46.88 0
1354 1 24.4882 48.2682 0
1247 1 28.3091 46.092 0
1356 1 27.0982 46.7955 0
1357 1 27.2466 48.163 0
1360 1 29.482 46.754 0
1361 1 32.0344 46.8517 0
1362 1 31.9967 48.2219 0
1250 1 33.2283 46.107 0
1252 1 35.615 46.2163 0
1363 1 33.172 48.9825 0
1365 1 34.4225 46.8564 0
1366 1 34.3916 48.268 0
1367 1 35.6081 48.9799 0
1256 1 38.1842 46.2628 0
1369 1 36.777 48.296 0
1260 1 40.545 46.1708 0
1370 1 39.36 48.2896 0
1372 1 41.9124 48.348 0
1265 1 45.0964 45.9176 0
1373 1 43.0541 49.0689 0
1375 1 44.4765 47.085 0
1376 1 44.2949 48.4423 0
1268 1 48.2001 45.9767 0
1379 1 46.7206 48.6035 0
1382 1 48.9226 47.0837 0
1383 1 49.1323 48.4316 0
1447 1 2.39047 50.5287 0
1330 1 3.68802 50.7257 0
1334 1 6.12932 50.4339 0
1450 1 4.97482 51.2491 0
1337 1 8.65346 50.3868 0
1454 1 7.4023 51.0649 0
1338 1 11.0665 50.3132 0
1457 1 9.91643 51.0206 0
1458 1 9.95044 52.4199 0
1341 1 13.2751 49.6568 0
1463 1 13.9566 50.8027 0
1464 1 14.7457 51.9404 0
1343 1 16.9899 49.6244 0
1467 1 17.11 50.958 0
1468 1 17.0855 52.377 0
1348 1 20.8933 50.3364 0
1471 1 19.7062 51.0804 0
1475 1 22.0912 51.0836 0
1352 1 23.2917 50.3683 0
1355 1 25.8829 50.9537 0
1479 1 24.5551 50.9127 0
1358 1 28.0226 49.2448 0
1359 1 28.3007 50.5867 0
1482 1 27.1806 51.4125 0
1486 1 29.5421 51.2499 0
1364 1 33.2621 50.373 0
1368 1 35.631 50.3813 0
1492 1 34.4345 51.1353 0
1496 1 36.8274 51.1201 0
1499 1 39.3516 51.1201 0
1371 1 40.5615 50.4606 0
1503 1 41.8024 51.132 0
1377 1 45.4527 49.1913 0
1374 1 43.0234 50.4662 0
1378 1 45.4291 50.5782 0
1507 1 44.2042 51.2127 0
1380 1 47.9807 49.2153 0
1381 1 47.958 50.6146 0
1510 1 46.6854 51.1971 0
1513 1 49.1702 51.2583 0
1446 1 1.66286 54.79 0
1449 1 2.815 54.1893 0
1445 1 0.0510908 52.5007 0
1448 1 3.94117 53.4501 0
1451 1 5.06945 52.6562 0
1452 1 6.31836 53.2656 0
1453 1 6.52016 54.6336 0
1455 1 7.43774 52.4583 0
1456 1 8.69954 53.0356 0
1459 1 11.0629 53.2548 0
1460 1 10.795 54.6192 0
1461 1 12.3148 52.7567 0
1462 1 13.171 54.7202 0
1465 1 15.7737 52.9021 0
1466 1 15.4766 54.275 0
1591 1 14.4291 55.2121 0
1469 1 18.2979 53.1293 0
1470 1 18.3965 54.5577 0
1472 1 19.554 52.4679 0
1597 1 19.5527 55.4044 0
1473 1 20.7746 53.1837 0
1474 1 20.7294 54.604 0
1476 1 22.0079 52.4965 0
1477 1 23.1159 53.3344 0
1478 1 23.7373 54.5193 0
1480 1 26.1815 53.5552 0
1481 1 26.0377 54.9354 0
1603 1 24.7456 55.463 0
1483 1 27.333 52.78 0
1484 1 28.5554 53.4707 0
1485 1 28.4123 54.8745 0
1606 1 27.2429 55.6696 0
1487 1 29.682 52.6259 0
1488 1 30.7903 54.5317 0
1489 1 32.008 52.5275 0
1611 1 31.911 55.2976 0
1490 1 33.1651 53.2257 0
1491 1 33.1338 54.6372 0
1493 1 34.3986 52.5417 0
1494 1 35.6168 53.2459 0
1495 1 35.6144 54.633 0
1614 1 34.3761 55.2659 0
1497 1 36.802 52.4907 0
1498 1 37.9663 54.5677 0
1617 1 36.8165 55.2869 0
1500 1 39.3628 52.4988 0
1501 1 40.5515 53.2532 0
1502 1 40.662 54.647 0
1504 1 41.7785 52.5417 0
1623 1 41.844 55.3961 0
1505 1 42.9832 53.2638 0
1506 1 43.0274 54.6516 0
1508 1 44.2019 52.5975 0
1509 1 45.3697 53.2772 0
1627 1 44.2198 55.3791 0
1511 1 48.3882 53.552 0
1512 1 47.5047 54.5484 0
1631 1 46.7012 55.5832 0
1578 1 0 56.8113 0
1579 1 2.17539 56.8402 0
1580 1 3.47979 56.7104 0
1581 1 4.80958 56.8508 0
1582 1 5.89578 57.6455 0
1584 1 6.97025 55.8646 0
1585 1 8.75538 57.4967 0
1586 1 8.69583 58.8419 0
1587 1 10.2707 55.8221 0
1588 1 12.254 56.9226 0
1589 1 13.4942 57.4659 0
1590 1 13.6464 58.8119 0
1592 1 14.5955 56.5997 0
1593 1 15.8892 57.0448 0
1594 1 17.2079 57.0195 0
1595 1 18.4411 57.5968 0
1596 1 18.4558 58.9819 0
1598 1 19.5804 56.8243 0
1599 1 20.7516 57.5646 0
1601 1 21.91 56.8447 0
1604 1 24.6747 56.87 0
1605 1 25.8193 57.6484 0
1607 1 27.0762 57.0675 0
1608 1 29.3591 56.7833 0
1609 1 30.5384 57.4298 0
1610 1 30.5246 58.8314 0
1612 1 31.712 56.6819 0
1615 1 35.9026 57.6238 0
1616 1 35.3065 58.8803 0
1618 1 36.9028 56.6675 0
1619 1 38.2013 57.1124 0
1620 1 39.5153 56.977 0
1621 1 40.7639 57.5234 0
1622 1 40.7979 58.8947 0
1624 1 41.928 56.7847 0
1625 1 43.1377 57.4861 0
1626 1 43.1407 58.8897 0
1628 1 44.3447 56.7648 0
1629 1 45.5215 57.5115 0
1630 1 45.5877 58.9063 0
1632 1 47.9489 58.9393 0
1694 1 1.23 61.7823 0
1695 1 2.46 59.6518 0
1583 1 6.21109 58.9991 0
1696 1 3.61031 62.0376 0
1697 1 5.15091 59.8983 0
1698 1 4.32486 60.9405 0
1700 1 7.4805 59.5515 0
1701 1 7.57539 60.9672 0
1702 1 8.70809 61.7959 0
1704 1 9.85253 59.6545 0
1705 1 9.90685 61.0322 0
1707 1 12.5787 60.8985 0
1708 1 13.7289 61.6036 0
1710 1 15.0207 61.0397 0
1711 1 16.2058 61.7495 0
1713 1 17.8782 60.1627 0
1600 1 20.8742 59.0042 0
1714 1 20.1777 60.2593 0
1715 1 20.314 61.6433 0
1717 1 22.2411 59.2703 0
1602 1 23.5411 59.3004 0
1718 1 23.7568 62.1967 0
1720 1 24.6744 59.9961 0
1721 1 24.8682 61.3622 0
1722 1 26.135 61.934 0
1724 1 27.1005 59.7552 0
1725 1 27.2869 61.1152 0
1726 1 28.6518 61.6999 0
1613 1 32.6509 59.288 0
1727 1 30.5079 60.1658 0
1728 1 30.1106 61.5114 0
1729 1 33.4601 61.5748 0
1731 1 33.9357 59.0429 0
1733 1 36.093 60.021 0
1734 1 36.9417 61.0487 0
1735 1 38.1913 61.5374 0
1736 1 39.6205 59.6301 0
1737 1 39.4712 61.0124 0
1738 1 40.6544 61.7422 0
1740 1 41.9783 59.6128 0
1741 1 41.8395 61.0031 0
1743 1 44.3602 59.5501 0
1745 1 46.7389 59.6191 0
1746 1 46.8438 61.0073 0
1747 1 48.0346 61.7629 0
1750 1 49.1892 60.9758 0
1749 1 49.1856 59.5669 0
1816 1 2.43957 63.8115 0
1817 1 2.37136 65.1589 0
1814 1 0.0589288 63.9429 0
1699 1 5.50587 62.6778 0
1820 1 4.85458 63.821 0
1821 1 4.7649 65.2091 0
1703 1 8.80217 63.1865 0
1826 1 9.80451 64.1559 0
1827 1 9.75108 65.5445 0
1706 1 11.1007 63.6718 0
1829 1 12.419 63.5704 0
1709 1 13.6711 63.0157 0
1712 1 16.1422 63.1332 0
1831 1 14.8924 63.7212 0
1832 1 17.1357 65.4391 0
1836 1 19.5108 65.2016 0
1716 1 20.5265 62.9807 0
1835 1 20.6429 64.3885 0
1838 1 21.89 65.0175 0
1719 1 22.7998 63.0843 0
1723 1 26.2291 63.2759 0
1840 1 24.5363 65.3489 0
1839 1 23.2086 65.2208 0
1846 1 31.8547 63.6785 0
1847 1 31.69 65.0696 0
1730 1 32.6235 62.5837 0
1732 1 35.67 63.2025 0
1852 1 36.859 65.5457 0
1739 1 40.4985 63.0931 0
1855 1 39.6351 64.1009 0
1856 1 39.4588 65.456 0
1859 1 41.936 65.5367 0
1742 1 42.656 63.2989 0
1744 1 45.3132 63.878 0
1861 1 44.3667 64.8862 0
1860 1 42.995 64.6131 0
1748 1 47.8581 63.1369 0
1864 1 46.6377 63.704 0
1815 1 1.19512 65.8243 0
1923 1 2.97376 68.5193 0
1920 1 0.152423 68.2058 0
1818 1 3.5572 65.9026 0
1819 1 3.42282 67.285 0
1822 1 5.993 65.8388 0
1823 1 7.32385 65.8002 0
1824 1 8.6018 66.3045 0
1825 1 8.67512 67.6913 0
1925 1 7.96305 68.8224 0
1828 1 10.9438 66.1958 0
1929 1 12.3 68.1735 0
1830 1 13.53 66.0431 0
1833 1 18.3713 65.9918 0
1834 1 18.4932 67.3776 0
1933 1 17.3265 68.1382 0
1937 1 19.6799 68.114 0
1837 1 20.9385 67.4924 0
1941 1 22.1149 68.1908 0
1841 1 25.6885 66.0476 0
1842 1 25.9251 67.4169 0
1945 1 24.7547 68.2259 0
1844 1 29.0887 66.0905 0
1843 1 28.4832 67.3818 0
1948 1 27.1891 68.0425 0
1952 1 29.5116 68.3321 0
1845 1 30.3722 65.5835 0
1956 1 31.9454 68.2593 0
1849 1 34.2911 65.6557 0
1848 1 32.9348 65.7266 0
1850 1 35.5875 66.1758 0
1851 1 35.6164 67.5703 0
1853 1 38.1804 66.0516 0
1854 1 38.2459 67.4511 0
1857 1 40.6793 66.1761 0
1858 1 40.6318 67.556 0
1963 1 39.3939 68.2161 0
1967 1 41.7819 68.3545 0
1862 1 44.9129 66.1384 0
1863 1 45.0061 67.4489 0
1971 1 44.2779 68.5539 0
1865 1 48.1348 67.2754 0
1977 1 48.7899 68.4103 0
1921 1 0.329706 69.5759 0
1922 1 1.54157 70.1614 0
1924 1 6.05048 70.6403 0
1926 1 7.01435 69.7546 0
1927 1 10.7538 70.0597 0
1928 1 10.8828 71.3973 0
2059 1 12.1338 71.9395 0
1930 1 13.53 70.3039 0
1931 1 16.0465 70.2125 0
1932 1 15.9215 71.5901 0
1934 1 17.2447 69.518 0
1935 1 18.4488 70.247 0
1936 1 18.3831 71.6568 0
1938 1 19.6773 69.5412 0
1939 1 20.9036 70.271 0
1940 1 20.8395 71.6843 0
1942 1 22.1641 69.5937 0
1943 1 23.3902 70.2805 0
1944 1 23.2445 71.6735 0
1946 1 24.6241 69.6243 0
1947 1 25.9098 70.1921 0
1949 1 27.1605 69.5075 0
1950 1 28.3002 70.3184 0
1951 1 28.2571 71.7062 0
1953 1 29.5335 69.6969 0
1954 1 30.7368 70.3504 0
1955 1 30.7033 71.7431 0
1957 1 31.927 69.608 0
1960 1 35.4409 68.8878 0
1958 1 33.096 70.3834 0
1959 1 33.1402 71.7806 0
1961 1 35.3078 70.189 0
1962 1 37.7483 71.3118 0
1964 1 39.4322 69.5965 0
1965 1 40.5766 70.3704 0
1966 1 40.6017 71.7279 0
1968 1 41.8245 69.7499 0
1969 1 42.9587 70.563 0
1970 1 42.9363 71.9988 0
1972 1 44.1977 69.9176 0
1973 1 45.435 70.5234 0
1974 1 45.4904 71.9007 0
1975 1 46.5633 69.7777 0
1976 1 47.9403 71.6415 0
2044 1 1.22005 74.6941 0
2046 1 2.42155 72.6168 0
2047 1 2.44155 73.9697 0
2043 1 0.0172285 73.9691 0
2042 1 0.0150416 72.5749 0
2048 1 3.6573 74.6787 0
2050 1 4.93314 74.1446 0
2051 1 6.18929 73.6958 0
2052 1 8.45482 72.2627 0
2053 1 7.3244 72.9937 0
2055 1 9.84463 72.3296 0
2056 1 10.3367 73.6194 0
2057 1 11.0398 74.7345 0
2060 1 14.7442 72.246 0
2061 1 16.1625 74.7512 0
2063 1 17.1287 72.3044 0
2064 1 16.9445 73.6687 0
2066 1 19.594 72.3633 0
2067 1 19.6715 73.7719 0
2068 1 20.8561 74.4703 0
2069 1 22.0536 72.4178 0
2070 1 22.1013 73.8159 0
2071 1 23.3366 74.4502 0
2073 1 24.4947 73.7555 0
2075 1 27.053 72.44 0
2076 1 27.0022 73.8159 0
2077 1 28.1936 74.505 0
2078 1 29.4714 72.4367 0
2079 1 29.4436 73.862 0
2080 1 30.6805 74.5203 0
2081 1 31.9135 72.4315 0
2082 1 31.8622 73.8319 0
2084 1 34.2262 72.6164 0
2085 1 34.9079 73.7622 0
2086 1 36.0677 74.4461 0
2087 1 37.5499 72.6065 0
2088 1 37.39 73.989 0
2089 1 38.525 74.8007 0
2091 1 39.8278 74.3014 0
2092 1 41.1426 73.9368 0
2093 1 41.6652 72.635 0
2094 1 43.05 74.5648 0
2095 1 44.238 72.5563 0
2097 1 46.7713 72.3997 0
2098 1 46.985 73.7433 0
2099 1 47.8758 74.7226 0
2045 1 1.16421 76.1094 0
2164 1 2.37508 76.8379 0
2165 1 2.31049 78.2411 0
2049 1 3.53249 76.072 0
2170 1 6.40871 77.5104 0
2054 1 8.62319 76.2042 0
2169 1 7.31344 76.5186 0
2058 1 11.1143 76.0983 0
2171 1 9.88677 76.781 0
2172 1 9.96215 78.1817 0
2174 1 12.3082 76.8528 0
2175 1 12.4074 78.2561 0
2062 1 16.095 76.0972 0
2065 1 18.4791 76.1897 0
2179 1 17.2442 76.8819 0
2180 1 17.2572 78.2768 0
2183 1 19.6998 76.8153 0
2184 1 19.6878 78.1894 0
2186 1 22.1944 76.6061 0
2187 1 22.2181 77.9752 0
2072 1 23.3677 75.8345 0
2074 1 25.7645 75.8376 0
2190 1 24.5943 76.5132 0
2191 1 24.617 77.9102 0
2192 1 25.7985 78.5722 0
2195 1 29.5186 78.0203 0
2198 1 32.0998 76.5512 0
2199 1 32.0245 77.9597 0
2196 1 30.7967 78.6097 0
2083 1 33.2905 75.8608 0
2202 1 34.462 76.5851 0
2203 1 34.4869 77.989 0
2090 1 38.4309 76.183 0
2207 1 38.8686 77.4199 0
2096 1 45.4791 76.0647 0
2209 1 44.2855 76.7585 0
2210 1 44.3346 78.1393 0
2100 1 47.9564 76.0838 0
2213 1 46.728 76.7217 0
2214 1 46.7232 78.1051 0
2216 1 49.1853 76.7185 0
2163 1 1.11681 78.928 0
2278 1 2.50104 80.9324 0
2276 1 0.115922 80.8329 0
2166 1 3.64896 80.2696 0
2167 1 6.01651 78.7893 0
2168 1 6.07296 80.1234 0
2281 1 6.56552 81.3633 0
2173 1 11.1348 78.8727 0
2285 1 9.94962 81.0333 0
2289 1 12.8165 81.8176 0
2176 1 13.4554 79.1749 0
2177 1 13.2795 80.5261 0
2178 1 16.0927 78.9623 0
2181 1 18.4961 78.9452 0
2182 1 18.5197 80.3243 0
2295 1 17.3456 81.0776 0
2185 1 20.8979 80.3926 0
2299 1 19.716 81.0454 0
2188 1 23.4363 78.664 0
2189 1 23.6021 80.0202 0
2306 1 24.2675 81.1636 0
2193 1 28.377 78.794 0
2194 1 28.4042 80.2002 0
2310 1 27.3561 81.0829 0
2197 1 30.7997 80.0045 0
2313 1 29.6677 80.7846 0
2317 1 32.0192 80.6702 0
2200 1 33.2537 78.6726 0
2201 1 33.273 80.0848 0
2204 1 35.6039 78.8137 0
2205 1 35.6344 80.2072 0
2319 1 34.4134 80.8921 0
2206 1 38.039 80.2803 0
2323 1 36.809 80.9083 0
2326 1 39.2237 80.9035 0
2208 1 40.59 78.8256 0
2330 1 42.2032 81.2323 0
2211 1 45.5495 78.8514 0
2212 1 45.7931 80.201 0
2215 1 47.9756 78.7345 0
2336 1 46.79 81.1067 0
2277 1 0.00595171 82.2126 0
3 1 2.80834 85.2014 0
2279 1 3.66815 84.2122 0
2280 1 6.15 84.5068 0
2282 1 7.44413 82.3654 0
2283 1 8.629 83.0694 0
2284 1 8.73024 84.4712 0
2286 1 9.85635 82.3755 0
2287 1 10.9886 83.2044 0
2288 1 11.0977 84.6019 0
2290 1 13.5728 83.0258 0
2291 1 13.518 84.4617 0
2292 1 14.896 82.5474 0
2293 1 16.0931 83.1863 0
2294 1 16.0144 84.5652 0
18 1 14.7571 85.1974 0
2296 1 17.2539 82.4656 0
2297 1 18.4496 83.165 0
2298 1 18.409 84.5606 0
2300 1 19.646 82.4471 0
2301 1 20.814 83.1875 0
2302 1 20.7869 84.5858 0
2303 1 22.0853 82.628 0
2304 1 23.3215 83.2791 0
2305 1 23.3047 84.6709 0
2307 1 24.4603 82.517 0
2308 1 25.7012 83.1348 0
2309 1 25.6655 84.5343 0
2311 1 26.7708 82.2775 0
2312 1 28.1652 84.9843 0
2314 1 29.9021 82.1397 0
2315 1 30.5048 83.3259 0
2316 1 30.4803 84.6686 0
2318 1 33.1542 82.9579 0
2320 1 34.339 82.3076 0
2321 1 35.5304 83.0599 0
2322 1 35.5718 84.4072 0
2324 1 36.7034 82.2998 0
48 1 39.0622 84.853 0
2331 1 42.0445 82.5796 0
2329 1 40.4191 84.4489 0
2327 1 39.7678 82.1134 0
2328 1 40.7337 83.0788 0
2335 1 45.7822 83.2007 0
2334 1 44.4502 83.0654 0
2333 1 42.9175 84.8315 0
2332 1 43.1281 83.4472 0
2338 1 48.0332 84.5107 0
2337 1 46.9114 82.4543 0
60 1 50.3636 2.19948 0
59 1 49.2177 1.37109 0
63 1 52.8888 2.13666 0
64 1 54.1131 0.0727679 0
65 1 54.0494 1.45635 0
66 1 55.2912 2.09084 0
69 1 56.5251 1.38192 0
70 1 57.7346 2.10717 0
72 1 59.0272 1.54896 0
73 1 60.3988 1.47357 0
74 1 61.8138 1.46171 0
76 1 63.0769 0.769161 0
78 1 66.4934 0.0996471 0
79 1 66.4539 1.48009 0
80 1 67.6514 2.24157 0
83 1 68.8021 1.42455 0
85 1 71.4972 1.39046 0
82 1 68.8933 0.0200508 0
86 1 72.658 2.08443 0
88 1 73.8524 0.0525921 0
89 1 73.8719 1.43234 0
90 1 75.0599 2.15853 0
92 1 76.2531 0.0453588 0
93 1 76.2601 1.45424 0
94 1 77.5199 2.07742 0
95 1 78.684 0.0643204 0
96 1 78.7866 1.45588 0
97 1 79.9433 2.22991 0
99 1 81.3178 0.241727 0
100 1 81.2128 1.63141 0
101 1 82.4114 2.34428 0
103 1 84.8642 2.09652 0
102 1 83.7083 2.85058 0
104 1 86.1744 0.138036 0