ITEM: TIMESTEP
5000
ITEM: NUMBER OF ATOMS
1008
ITEM: BOX BOUNDS pp pp ff
-7.2347149432607338e-01 4.9583471494325188e+01
-6.6821372214367447e-01 5.0236043722143030e+01
-1.0000000000000000e+01 1.0000000000000000e+01
ITEM: ATOMS id type xs ys zs
1 1 0.0274725 0.0116202 0.500537
2 1 0.0138232 0.0353019 0.501422
3 1 0.027658 0.0597261 0.496077
4 1 0.013831 0.0842497 0.496178
5 1 0.0287627 0.107992 0.50262
43 1 0.0553857 0.0119526 0.499504
44 1 0.0695108 0.0359834 0.496433
45 1 0.0554153 0.0602002 0.498122
46 1 0.0697796 0.0831881 0.503868
47 1 0.0561887 0.107099 0.501127
85 1 0.111506 0.0121517 0.500016
86 1 0.0975149 0.0357794 0.49944
87 1 0.111304 0.0599683 0.492339
88 1 0.0979829 0.0842515 0.502211
89 1 0.111645 0.107535 0.502459
127 1 0.138925 0.0119617 0.500189
128 1 0.152413 0.0364616 0.503221
129 1 0.138971 0.060289 0.496666
130 1 0.153501 0.0840292 0.503043
131 1 0.139188 0.107738 0.499276
169 1 0.194673 0.0115665 0.501441
170 1 0.180381 0.0370032 0.508147
171 1 0.194395 0.0606058 0.505593
172 1 0.180329 0.0839653 0.503334
173 1 0.19435 0.108118 0.501551
211 1 0.222035 0.0121981 0.494352
212 1 0.23573 0.0358409 0.498222
213 1 0.221945 0.0588074 0.509385
214 1 0.235897 0.0831653 0.507433
215 1 0.221941 0.107072 0.508439
253 1 0.27848 0.0110768 0.502763
254 1 0.264037 0.034475 0.497675
255 1 0.277543 0.0587218 0.510403
256 1 0.263808 0.0833205 0.510777
257 1 0.277276 0.106836 0.504103
295 1 0.306035 0.0107806 0.50785
296 1 0.319537 0.0348784 0.50644
297 1 0.305359 0.0587091 0.505431
298 1 0.318668 0.0828225 0.50251
299 1 0.304923 0.107069 0.502559
337 1 0.36082 0.011164 0.499258
338 1 0.347516 0.0346948 0.50618
339 1 0.360173 0.0608453 0.496464
340 1 0.346826 0.0840403 0.498825
341 1 0.36119 0.107521 0.496326
379 1 0.388463 0.0117363 0.500812
380 1 0.402178 0.0363601 0.506111
381 1 0.388312 0.0603206 0.505601
382 1 0.402338 0.0837288 0.510899
383 1 0.388293 0.106615 0.502568
421 1 0.443808 0.0132275 0.507515
422 1 0.429996 0.0371665 0.499029
423 1 0.444115 0.060395 0.502269
424 1 0.429775 0.0842207 0.508382
425 1 0.444173 0.10763 0.509177
463 1 0.472135 0.0131202 0.502807
464 1 0.48542 0.0364732 0.494334
465 1 0.471884 0.0610659 0.498606
466 1 0.485818 0.0847053 0.507632
467 1 0.472102 0.109227 0.502996
6 1 0.0138697 0.131417 0.504399
7 1 0.0279303 0.155536 0.502975
8 1 0.0139479 0.178879 0.504289
9 1 0.0282791 0.202494 0.512272
10 1 0.0138607 0.225895 0.505151
48 1 0.0700138 0.130899 0.503266
49 1 0.0557408 0.155016 0.50355
50 1 0.0700084 0.178462 0.503364
51 1 0.056583 0.202388 0.50929
52 1 0.0701149 0.226203 0.510595
90 1 0.0977302 0.12996 0.496494
91 1 0.111304 0.154969 0.49187
92 1 0.0977175 0.178255 0.49306
93 1 0.111178 0.201451 0.500208
94 1 0.0980266 0.225375 0.504802
11 1 0.0275456 0.249444 0.504591
53 1 0.0551787 0.249933 0.507159
132 1 0.1526 0.130862 0.501311
133 1 0.139181 0.154392 0.498866
134 1 0.15253 0.17841 0.500644
135 1 0.139139 0.20231 0.50109
136 1 0.153555 0.22637 0.506597
174 1 0.179887 0.131395 0.501309
175 1 0.193013 0.155362 0.503858
176 1 0.180501 0.179468 0.501949
177 1 0.195196 0.202631 0.502507
178 1 0.181372 0.226658 0.503407
216 1 0.235652 0.13102 0.507309
217 1 0.220869 0.154963 0.509917
218 1 0.235587 0.179047 0.510133
219 1 0.22262 0.202834 0.505967
220 1 0.236022 0.225927 0.502416
258 1 0.263016 0.131205 0.502702
259 1 0.277007 0.155053 0.501242
260 1 0.263655 0.178492 0.506144
261 1 0.278321 0.202657 0.505749
262 1 0.263661 0.226545 0.503831
300 1 0.320026 0.130754 0.50443
301 1 0.304778 0.154521 0.501907
302 1 0.318955 0.177955 0.504539
303 1 0.305959 0.202248 0.500603
304 1 0.319477 0.226693 0.496825
342 1 0.346999 0.13171 0.498608
343 1 0.360498 0.155052 0.502287
344 1 0.346644 0.178704 0.505781
345 1 0.360039 0.202134 0.497889
346 1 0.346686 0.225789 0.497613
384 1 0.402133 0.130687 0.505868
385 1 0.388106 0.154911 0.503714
386 1 0.401978 0.178024 0.495493
387 1 0.38915 0.202353 0.495476
388 1 0.403248 0.226863 0.505405
426 1 0.429543 0.130847 0.50317
427 1 0.443899 0.154739 0.49779
428 1 0.430462 0.178538 0.493556
429 1 0.444358 0.202695 0.499349
430 1 0.431172 0.226609 0.501618
468 1 0.48624 0.132225 0.510964
469 1 0.47195 0.154552 0.503727
470 1 0.485712 0.179115 0.505922
471 1 0.471562 0.20315 0.503092
472 1 0.485369 0.226346 0.501486
389 1 0.388737 0.250289 0.503431
12 1 0.013341 0.273868 0.501686
13 1 0.0287556 0.297125 0.498679
14 1 0.0138751 0.321712 0.503902
15 1 0.0285504 0.344715 0.501986
16 1 0.0141797 0.368863 0.504426
54 1 0.0691129 0.272706 0.499975
55 1 0.0566015 0.297395 0.494887
56 1 0.0694737 0.321141 0.495243
57 1 0.0565316 0.345713 0.496829
58 1 0.0695038 0.369456 0.493212
95 1 0.111287 0.248692 0.502832
96 1 0.0971512 0.272217 0.498695
97 1 0.110707 0.296211 0.497687
98 1 0.0973308 0.32066 0.49757
99 1 0.111157 0.344444 0.499356
100 1 0.0974678 0.368738 0.503024
137 1 0.139103 0.249629 0.508459
179 1 0.195348 0.250409 0.507836
221 1 0.222665 0.249915 0.50307
138 1 0.152164 0.273474 0.507093
139 1 0.138801 0.296657 0.499448
140 1 0.152982 0.319514 0.498897
141 1 0.140096 0.344372 0.497522
142 1 0.152512 0.368479 0.501399
180 1 0.180906 0.273393 0.507164
181 1 0.194785 0.296525 0.506629
182 1 0.180004 0.319509 0.50221
183 1 0.193961 0.344056 0.497783
184 1 0.180624 0.368793 0.500789
222 1 0.236349 0.274215 0.506975
223 1 0.222484 0.29819 0.511326
224 1 0.236621 0.321698 0.507849
225 1 0.222165 0.344562 0.505723
226 1 0.236149 0.368478 0.501625
263 1 0.277627 0.250335 0.501176
305 1 0.305839 0.250057 0.500041
264 1 0.264155 0.274256 0.497349
265 1 0.27797 0.297975 0.492411
266 1 0.263862 0.321808 0.500273
267 1 0.278067 0.345556 0.500392
268 1 0.263918 0.36856 0.496641
306 1 0.318934 0.27487 0.499831
307 1 0.305731 0.298953 0.499682
308 1 0.320404 0.323105 0.502111
309 1 0.305964 0.346203 0.506201
310 1 0.320471 0.369282 0.511927
347 1 0.360784 0.249888 0.498692
348 1 0.346876 0.274635 0.499693
349 1 0.361543 0.297994 0.50461
350 1 0.34823 0.322153 0.503508
351 1 0.362869 0.345255 0.506615
352 1 0.348177 0.368678 0.508023
473 1 0.472214 0.249904 0.50776
390 1 0.402551 0.274861 0.505054
391 1 0.388845 0.298544 0.499831
392 1 0.403622 0.321564 0.493388
393 1 0.390575 0.345553 0.501581
394 1 0.403109 0.369075 0.500287
431 1 0.444189 0.250599 0.50319
432 1 0.430452 0.273794 0.508665
433 1 0.444473 0.298574 0.50436
434 1 0.431113 0.321784 0.490921
435 1 0.445681 0.345683 0.491472
436 1 0.430802 0.369154 0.486583
474 1 0.485551 0.274338 0.508966
475 1 0.472433 0.299121 0.510303
476 1 0.486301 0.322764 0.506731
477 1 0.47247 0.345897 0.497928
478 1 0.486449 0.370028 0.497879
17 1 0.0281279 0.393375 0.497952
18 1 0.01355 0.41676 0.497686
19 1 0.0274644 0.440253 0.4951
20 1 0.0131233 0.464295 0.490247
21 1 0.0274951 0.488009 0.494775
59 1 0.0557959 0.392566 0.496474
60 1 0.0689748 0.4161 0.503173
61 1 0.0551009 0.440245 0.49981
62 1 0.0687754 0.463226 0.500454
63 1 0.0559509 0.487402 0.499501
101 1 0.111654 0.39191 0.509485
102 1 0.096693 0.415137 0.502699
103 1 0.110641 0.439627 0.508595
104 1 0.0957457 0.46362 0.505977
105 1 0.110612 0.486807 0.50353
143 1 0.139171 0.392007 0.509943
144 1 0.152567 0.416145 0.513331
145 1 0.1385 0.439025 0.511923
146 1 0.152214 0.463496 0.510055
147 1 0.138094 0.487141 0.50802
185 1 0.195229 0.392183 0.508989
186 1 0.1804 0.41573 0.510721
187 1 0.193766 0.439214 0.506392
188 1 0.179702 0.463922 0.507421
189 1 0.194909 0.487507 0.502316
227 1 0.222828 0.392692 0.508899
228 1 0.237169 0.416145 0.50209
229 1 0.222527 0.439406 0.499991
230 1 0.23655 0.463941 0.497226
231 1 0.223542 0.488086 0.502369
269 1 0.277336 0.392354 0.505049
270 1 0.264567 0.416643 0.502304
271 1 0.278368 0.440446 0.503981
272 1 0.263681 0.463636 0.50284
273 1 0.278348 0.48803 0.501796
311 1 0.305331 0.392816 0.507592
312 1 0.320083 0.416689 0.50546
313 1 0.306412 0.44105 0.502814
314 1 0.321099 0.464389 0.501016
315 1 0.307326 0.487993 0.500195
353 1 0.361898 0.393008 0.498658
354 1 0.34758 0.416195 0.500209
355 1 0.36153 0.439853 0.501303
356 1 0.348023 0.463677 0.499458
357 1 0.361312 0.487503 0.501912
395 1 0.390091 0.392771 0.504999
396 1 0.403864 0.4169 0.503143
397 1 0.389375 0.440208 0.501443
398 1 0.404339 0.464161 0.502335
399 1 0.389197 0.487271 0.5078
437 1 0.444363 0.393076 0.491766
438 1 0.43136 0.416112 0.499094
439 1 0.445521 0.439772 0.500966
440 1 0.43153 0.463806 0.499949
441 1 0.445709 0.487584 0.507385
479 1 0.472551 0.393266 0.491508
480 1 0.487279 0.417216 0.501367
481 1 0.47337 0.441475 0.505545
482 1 0.487219 0.464527 0.49793
483 1 0.47378 0.487844 0.508476
22 1 0.0138021 0.512514 0.497503
23 1 0.0272678 0.536076 0.501243
24 1 0.0142561 0.559673 0.502114
25 1 0.0280024 0.583703 0.500204
26 1 0.0139423 0.607171 0.492651
64 1 0.0685803 0.511482 0.506112
65 1 0.0556453 0.536003 0.506001
66 1 0.0691804 0.559471 0.499451
67 1 0.0557148 0.583547 0.501132
68 1 0.0683535 0.607504 0.497065
106 1 0.0966502 0.511627 0.498794
107 1 0.111537 0.535038 0.495166
108 1 0.097208 0.559215 0.506519
109 1 0.111379 0.583122 0.501354
110 1 0.0966786 0.607467 0.501246
148 1 0.152653 0.510351 0.501433
149 1 0.139208 0.53418 0.498698
150 1 0.153407 0.558057 0.501879
151 1 0.13938 0.582052 0.501075
152 1 0.152872 0.605881 0.507077
190 1 0.181766 0.511811 0.501528
191 1 0.195391 0.535429 0.512849
192 1 0.18033 0.55891 0.507385
193 1 0.194577 0.583099 0.5114
194 1 0.180967 0.607502 0.510075
232 1 0.236359 0.511574 0.508606
233 1 0.223168 0.536167 0.508827
234 1 0.236003 0.560306 0.512321
235 1 0.222444 0.583929 0.516412
236 1 0.236302 0.60743 0.50782
274 1 0.264459 0.511218 0.507269
275 1 0.278156 0.535043 0.509027
276 1 0.263904 0.558964 0.504638
277 1 0.277723 0.583067 0.502227
278 1 0.264634 0.607719 0.503162
316 1 0.32062 0.511915 0.501648
317 1 0.306036 0.535493 0.50289
318 1 0.320193 0.559881 0.506161
319 1 0.305657 0.583181 0.505681
320 1 0.319035 0.606758 0.509658
358 1 0.347782 0.511546 0.504606
359 1 0.362309 0.535345 0.501559
360 1 0.348034 0.559253 0.510989
361 1 0.361793 0.582947 0.507616
362 1 0.346592 0.605818 0.509453
400 1 0.403407 0.511252 0.510455
401 1 0.389806 0.535507 0.506026
402 1 0.403192 0.559378 0.501489
403 1 0.389939 0.583604 0.508098
404 1 0.403004 0.607281 0.508138
442 1 0.43121 0.511752 0.5062
443 1 0.444831 0.534301 0.5011
444 1 0.430755 0.558623 0.498609
445 1 0.443473 0.582559 0.494702
446 1 0.430831 0.607249 0.498288
484 1 0.487071 0.511756 0.505656
485 1 0.472598 0.534857 0.503162
486 1 0.485751 0.559006 0.500311
487 1 0.472577 0.583383 0.499659
488 1 0.48546 0.607265 0.498305
27 1 0.0267116 0.631735 0.493948
28 1 0.014339 0.656135 0.49762
29 1 0.0293304 0.678904 0.50529
30 1 0.0146587 0.702954 0.507189
31 1 0.0287673 0.726569 0.504739
69 1 0.0548142 0.631364 0.499538
70 1 0.0697054 0.654648 0.500669
71 1 0.0570528 0.678546 0.508766
72 1 0.0701236 0.703015 0.503467
73 1 0.0568499 0.726529 0.504134
111 1 0.111698 0.63077 0.498947
112 1 0.0972767 0.654111 0.499534
113 1 0.111268 0.678101 0.501249
114 1 0.097957 0.702695 0.500371
115 1 0.111838 0.726067 0.493747
116 1 0.0980163 0.750313 0.502163
74 1 0.0701233 0.750575 0.503156
153 1 0.140109 0.63032 0.50246
154 1 0.153532 0.654274 0.509759
155 1 0.138597 0.67807 0.503542
156 1 0.153721 0.702352 0.495184
157 1 0.139892 0.726216 0.499528
195 1 0.194966 0.631844 0.502535
196 1 0.180662 0.654744 0.508265
197 1 0.193707 0.678565 0.505331
198 1 0.18124 0.70312 0.499484
199 1 0.194501 0.726299 0.505513
237 1 0.222249 0.630615 0.503896
238 1 0.236032 0.654884 0.498184
239 1 0.221578 0.677642 0.497892
240 1 0.236502 0.70205 0.502813
241 1 0.222877 0.725994 0.50996
279 1 0.277972 0.631267 0.497435
280 1 0.264093 0.654738 0.498468
281 1 0.27794 0.678377 0.502625
282 1 0.263922 0.702652 0.501073
283 1 0.277831 0.727164 0.501286
321 1 0.306043 0.63065 0.502851
322 1 0.319491 0.654658 0.500676
323 1 0.305479 0.678433 0.502963
324 1 0.319056 0.701504 0.5001
325 1 0.305238 0.726181 0.496376
363 1 0.360944 0.630166 0.5027
364 1 0.346737 0.65443 0.505237
365 1 0.360942 0.678291 0.505063
366 1 0.346387 0.70164 0.499394
367 1 0.360378 0.725225 0.502274
368 1 0.346879 0.749714 0.497407
405 1 0.389251 0.631003 0.509106
406 1 0.402979 0.65507 0.512044
407 1 0.388536 0.678924 0.51003
408 1 0.401685 0.703027 0.508388
409 1 0.387995 0.726274 0.505502
410 1 0.400619 0.750169 0.505771
447 1 0.44407 0.630577 0.500162
448 1 0.430348 0.654884 0.503855
449 1 0.444609 0.678002 0.501333
450 1 0.429342 0.70179 0.50644
451 1 0.442466 0.726293 0.501524
452 1 0.429126 0.749866 0.511166
489 1 0.471665 0.630928 0.497495
490 1 0.485409 0.654813 0.494189
491 1 0.47176 0.678713 0.497241
492 1 0.485081 0.702159 0.497016
493 1 0.471104 0.726648 0.500349
494 1 0.484822 0.750097 0.49988
32 1 0.0147012 0.750406 0.498843
33 1 0.0283524 0.774215 0.498959
34 1 0.0144243 0.797801 0.496442
35 1 0.0281016 0.821502 0.498153
36 1 0.013857 0.845573 0.501044
37 1 0.0273241 0.869839 0.506783
75 1 0.056284 0.7748 0.50123
76 1 0.0702432 0.79825 0.494092
77 1 0.0548775 0.821736 0.501282
78 1 0.0686674 0.845117 0.505247
79 1 0.0551489 0.869192 0.514159
117 1 0.111249 0.773322 0.494997
118 1 0.0983797 0.797616 0.495003
119 1 0.111769 0.821973 0.494274
120 1 0.096084 0.845042 0.496818
121 1 0.110211 0.868344 0.504358
158 1 0.153754 0.750417 0.499917
200 1 0.180871 0.750131 0.502504
242 1 0.235447 0.750586 0.505456
159 1 0.139066 0.773553 0.500622
160 1 0.152584 0.797635 0.501135
161 1 0.13907 0.821745 0.498645
162 1 0.152657 0.846125 0.505602
163 1 0.138604 0.869388 0.504245
201 1 0.194614 0.774128 0.504201
202 1 0.179623 0.797899 0.505919
203 1 0.193402 0.821272 0.504517
204 1 0.180197 0.846278 0.502668
205 1 0.194114 0.869554 0.509438
243 1 0.222501 0.774475 0.50111
244 1 0.234435 0.798258 0.505326
245 1 0.221033 0.822719 0.503625
246 1 0.235671 0.845544 0.498773
247 1 0.221887 0.870026 0.506834
284 1 0.263355 0.750743 0.502987
326 1 0.318316 0.750223 0.502351
285 1 0.277778 0.774347 0.509215
286 1 0.263511 0.798196 0.504842
287 1 0.277492 0.821314 0.510927
288 1 0.263245 0.845262 0.507408
289 1 0.276578 0.869482 0.506115
327 1 0.30458 0.774354 0.503648
328 1 0.31917 0.797194 0.498211
329 1 0.305277 0.821279 0.499679
330 1 0.319103 0.846147 0.501326
331 1 0.304302 0.869946 0.502007
369 1 0.360893 0.773745 0.500257
370 1 0.347173 0.797487 0.506609
371 1 0.361677 0.8222 0.508214
372 1 0.346904 0.845827 0.506821
373 1 0.359705 0.86961 0.499793
411 1 0.388239 0.774156 0.502947
412 1 0.402204 0.796763 0.500336
413 1 0.388858 0.821762 0.497421
414 1 0.402247 0.845103 0.495487
415 1 0.388254 0.868623 0.498659
453 1 0.443433 0.773887 0.505448
454 1 0.429426 0.797611 0.501355
455 1 0.443308 0.821467 0.505182
456 1 0.430454 0.845513 0.504876
457 1 0.444634 0.868766 0.511672
495 1 0.471577 0.774051 0.498235
496 1 0.484941 0.797549 0.497877
497 1 0.470768 0.821701 0.501895
498 1 0.485638 0.843757 0.508491
499 1 0.472283 0.868852 0.507807
38 1 0.0141713 0.894017 0.500695
39 1 0.0278806 0.917647 0.497902
40 1 0.0147619 0.941552 0.49828
41 1 0.0285212 0.964963 0.498459
42 1 0.0134143 0.987995 0.499296
80 1 0.0691596 0.893395 0.503066
81 1 0.0561399 0.917177 0.501598
82 1 0.0701201 0.940907 0.495367
83 1 0.055894 0.964499 0.492049
84 1 0.0697496 0.988445 0.496031
122 1 0.0980992 0.893096 0.497186
123 1 0.110746 0.917056 0.495545
124 1 0.0977207 0.940722 0.500436
125 1 0.111519 0.964051 0.507914
126 1 0.0978972 0.987512 0.497177
164 1 0.152769 0.893647 0.505646
165 1 0.138441 0.917432 0.502655
166 1 0.153477 0.940826 0.501354
167 1 0.139284 0.964023 0.510039
168 1 0.152389 0.98821 0.498767
206 1 0.181084 0.893912 0.502964
207 1 0.194888 0.917363 0.503868
208 1 0.181143 0.941037 0.499538
209 1 0.194959 0.964023 0.498619
210 1 0.180589 0.987519 0.500379
248 1 0.235837 0.893261 0.504495
249 1 0.222553 0.916893 0.499553
250 1 0.236679 0.940611 0.498593
251 1 0.222947 0.964896 0.496361
252 1 0.235998 0.988888 0.495344
290 1 0.263664 0.893193 0.51199
291 1 0.277845 0.916505 0.509057
292 1 0.263929 0.940819 0.506085
293 1 0.278348 0.964678 0.499042
294 1 0.264203 0.988386 0.497898
332 1 0.318966 0.892442 0.506689
333 1 0.305552 0.917483 0.505795
334 1 0.319827 0.940894 0.503644
335 1 0.306337 0.964329 0.511387
336 1 0.320461 0.98822 0.509294
374 1 0.346068 0.893422 0.504055
375 1 0.361114 0.916492 0.503593
376 1 0.34742 0.94077 0.511195
377 1 0.362288 0.964119 0.506699
378 1 0.34761 0.988315 0.507424
416 1 0.402144 0.89193 0.509174
417 1 0.388535 0.915903 0.505592
418 1 0.403066 0.939985 0.500833
419 1 0.389397 0.964006 0.49874
420 1 0.403191 0.987598 0.498468
458 1 0.43055 0.892312 0.506985
459 1 0.444317 0.916672 0.50552
460 1 0.430859 0.94112 0.501312
461 1 0.444554 0.965332 0.503883
462 1 0.430607 0.988922 0.50621
500 1 0.485736 0.892292 0.499644
501 1 0.472032 0.915791 0.503178
502 1 0.485248 0.940171 0.494097
503 1 0.472267 0.964862 0.49872
504 1 0.486039 0.988397 0.505276
505 1 0.527963 0.0122097 0.498592
506 1 0.514182 0.035885 0.497908
507 1 0.527224 0.0599428 0.500621
508 1 0.513292 0.0845997 0.506953
509 1 0.527512 0.107643 0.506806
547 1 0.555021 0.0120452 0.501096
548 1 0.569273 0.0354937 0.505508
549 1 0.554941 0.0590301 0.509199
550 1 0.569377 0.0824611 0.505637
551 1 0.556527 0.106751 0.50859
589 1 0.610321 0.0107178 0.506769
590 1 0.596798 0.0355571 0.508517
591 1 0.610364 0.0588527 0.510103
592 1 0.597666 0.0830906 0.507255
593 1 0.610882 0.107281 0.493866
631 1 0.638525 0.0110895 0.505796
632 1 0.652035 0.0348892 0.503907
633 1 0.638343 0.0590342 0.509726
634 1 0.652609 0.0834084 0.507126
635 1 0.638692 0.106796 0.501677
673 1 0.693199 0.0114817 0.500702
674 1 0.67912 0.0353619 0.501509
675 1 0.694099 0.0589777 0.496619
676 1 0.680129 0.0828442 0.497422
677 1 0.693486 0.106499 0.494398
715 1 0.721257 0.0108558 0.506736
716 1 0.735896 0.0346208 0.504589
717 1 0.721736 0.0584914 0.497342
718 1 0.735137 0.0824402 0.497842
719 1 0.721406 0.106734 0.493123
757 1 0.776925 0.0116972 0.506723
758 1 0.763754 0.0350225 0.506122
759 1 0.776537 0.0590544 0.50431
760 1 0.762922 0.0829549 0.505582
761 1 0.776919 0.106945 0.508031
799 1 0.804358 0.01077 0.506201
800 1 0.818218 0.0347952 0.507973
801 1 0.804441 0.0593058 0.505939
802 1 0.818279 0.0829742 0.503472
803 1 0.803642 0.1071 0.505182
841 1 0.860916 0.0119627 0.511517
842 1 0.845826 0.0353934 0.506695
843 1 0.860372 0.0587051 0.504222
844 1 0.846097 0.0830777 0.509822
845 1 0.860168 0.105655 0.499379
883 1 0.888387 0.0118346 0.509574
884 1 0.902531 0.0362232 0.510726
885 1 0.889355 0.0599331 0.503731
886 1 0.903207 0.0839534 0.49774
887 1 0.887732 0.106673 0.495495
925 1 0.944688 0.0117312 0.499065
926 1 0.930745 0.0357751 0.503625
927 1 0.944457 0.0593598 0.512832
928 1 0.930802 0.0825959 0.500828
929 1 0.944676 0.106477 0.498695
967 1 0.972811 0.011875 0.504584
968 1 0.986576 0.0351799 0.504504
969 1 0.972792 0.0586101 0.512307
970 1 0.986176 0.0833209 0.496154
971 1 0.972133 0.106944 0.501545
510 1 0.51415 0.131501 0.509448
511 1 0.527757 0.155694 0.51156
512 1 0.512731 0.179591 0.504527
513 1 0.5277 0.202625 0.502302
514 1 0.513074 0.226466 0.500172
552 1 0.569263 0.130549 0.508898
553 1 0.555933 0.154259 0.503363
554 1 0.568663 0.177975 0.49962
555 1 0.555511 0.202021 0.498533
556 1 0.5691 0.226691 0.500202
594 1 0.596663 0.131278 0.499567
595 1 0.609992 0.154912 0.501228
596 1 0.595867 0.178967 0.500698
597 1 0.610312 0.202385 0.49519
598 1 0.596784 0.226722 0.496475
557 1 0.555547 0.250848 0.497766
599 1 0.611009 0.250574 0.498166
636 1 0.652046 0.131414 0.501107
637 1 0.638126 0.155127 0.502231
638 1 0.652068 0.178673 0.495258
639 1 0.638577 0.202044 0.496405
640 1 0.652188 0.22645 0.502979
678 1 0.679953 0.130617 0.497667
679 1 0.693648 0.154636 0.501687
680 1 0.680384 0.178451 0.502524
681 1 0.693743 0.202714 0.507162
682 1 0.679814 0.22678 0.503272
720 1 0.735317 0.131042 0.497908
721 1 0.720432 0.155067 0.497552
722 1 0.735431 0.178119 0.496966
723 1 0.721676 0.201692 0.50188
724 1 0.735024 0.225125 0.500674
683 1 0.693167 0.250235 0.505568
725 1 0.721475 0.249126 0.506068
762 1 0.762986 0.130032 0.505133
763 1 0.777928 0.153963 0.507817
764 1 0.763838 0.177804 0.506829
765 1 0.777341 0.20143 0.497117
766 1 0.763051 0.225682 0.497091
804 1 0.818833 0.130358 0.507792
805 1 0.805164 0.153842 0.503829
806 1 0.818958 0.177196 0.49996
807 1 0.805136 0.201326 0.501693
808 1 0.819334 0.225211 0.50339
846 1 0.846868 0.12997 0.499006
847 1 0.8615 0.154107 0.50037
848 1 0.847462 0.177161 0.503156
849 1 0.861292 0.201082 0.501621
850 1 0.84689 0.225145 0.499885
809 1 0.805798 0.249155 0.504414
851 1 0.86137 0.248858 0.504138
767 1 0.777297 0.248969 0.500604
888 1 0.902493 0.130763 0.499024
889 1 0.889394 0.154075 0.500294
890 1 0.903794 0.177906 0.501042
891 1 0.888738 0.202014 0.49899
892 1 0.902935 0.225537 0.498713
930 1 0.929669 0.130064 0.498643
931 1 0.94442 0.154162 0.50284
932 1 0.931329 0.177624 0.503681
933 1 0.94497 0.201873 0.503089
934 1 0.930223 0.225812 0.500714
972 1 0.985602 0.130364 0.496425
973 1 0.97144 0.153588 0.497983
974 1 0.985813 0.178212 0.500436
975 1 0.97271 0.202813 0.496559
976 1 0.986291 0.226267 0.501292
977 1 0.971585 0.249061 0.506172
515 1 0.527057 0.251137 0.499947
516 1 0.51328 0.274534 0.505776
517 1 0.527144 0.298301 0.500474
518 1 0.513876 0.322236 0.505677
519 1 0.528638 0.345829 0.500055
520 1 0.514995 0.369665 0.499828
558 1 0.569398 0.273806 0.49916
559 1 0.555283 0.297865 0.500241
560 1 0.570135 0.321239 0.500043
561 1 0.556442 0.345133 0.504133
562 1 0.569792 0.369251 0.509781
600 1 0.596811 0.273028 0.503895
601 1 0.609898 0.297053 0.503779
602 1 0.597708 0.32095 0.496343
603 1 0.61156 0.344795 0.505876
604 1 0.59756 0.368305 0.507515
641 1 0.638222 0.251077 0.503832
642 1 0.652326 0.275014 0.504719
643 1 0.638244 0.298355 0.512428
644 1 0.653022 0.321998 0.508345
645 1 0.638856 0.344832 0.510362
646 1 0.65372 0.368672 0.504286
684 1 0.679621 0.274199 0.503857
685 1 0.693639 0.29804 0.506036
686 1 0.680734 0.321874 0.506972
687 1 0.695009 0.344738 0.497958
688 1 0.680883 0.369788 0.510319
726 1 0.735723 0.273036 0.507191
727 1 0.721073 0.29598 0.507715
728 1 0.735745 0.319549 0.501605
729 1 0.722333 0.343889 0.497968
730 1 0.736906 0.368109 0.497186
768 1 0.763853 0.273122 0.500524
769 1 0.778406 0.29693 0.500784
770 1 0.764517 0.321272 0.503295
771 1 0.778535 0.345345 0.503367
772 1 0.764545 0.368978 0.501064
810 1 0.819698 0.271945 0.503886
811 1 0.806236 0.296501 0.498485
812 1 0.81893 0.321045 0.503328
813 1 0.805857 0.345287 0.500801
814 1 0.819486 0.369919 0.502355
852 1 0.847443 0.272898 0.507047
853 1 0.861734 0.296433 0.502438
854 1 0.847079 0.320375 0.502928
855 1 0.860565 0.345143 0.502403
856 1 0.848202 0.369689 0.502741
893 1 0.889236 0.249774 0.500758
894 1 0.902813 0.273779 0.496592
895 1 0.888903 0.297486 0.497141
896 1 0.902486 0.32142 0.502249
897 1 0.888509 0.345497 0.498221
898 1 0.902185 0.368255 0.506927
935 1 0.943164 0.250045 0.501957
936 1 0.930382 0.273735 0.494273
937 1 0.944619 0.297958 0.499843
938 1 0.9297 0.321625 0.505486
939 1 0.944372 0.344623 0.510074
940 1 0.930123 0.368576 0.499779
978 1 0.985381 0.273721 0.505033
979 1 0.972015 0.298178 0.50549
980 1 0.986307 0.320854 0.505121
981 1 0.97166 0.344776 0.500476
982 1 0.985068 0.368419 0.499134
521 1 0.528208 0.393581 0.503882
522 1 0.514413 0.417089 0.497975
523 1 0.52864 0.44087 0.502623
524 1 0.514278 0.46507 0.495073
525 1 0.528537 0.489413 0.50685
563 1 0.556617 0.392728 0.508933
564 1 0.570959 0.416747 0.508967
565 1 0.556708 0.440241 0.500702
566 1 0.570004 0.46491 0.503846
567 1 0.55726 0.488847 0.505014
605 1 0.612112 0.391834 0.507638
606 1 0.598978 0.416003 0.504479
607 1 0.61209 0.440436 0.500911
608 1 0.597702 0.464853 0.505299
609 1 0.612312 0.488756 0.504041
647 1 0.639194 0.392423 0.50603
648 1 0.653017 0.415579 0.500682
649 1 0.63947 0.440383 0.503182
650 1 0.653867 0.464148 0.498488
651 1 0.64015 0.488158 0.498261
689 1 0.694366 0.39309 0.507354
690 1 0.681311 0.416611 0.503874
691 1 0.694753 0.440564 0.507939
692 1 0.680974 0.464684 0.501361
693 1 0.694946 0.488945 0.499216
731 1 0.722929 0.392879 0.506471
732 1 0.736776 0.416181 0.502963
733 1 0.722486 0.440375 0.50795
734 1 0.736609 0.463942 0.498947
735 1 0.722769 0.487876 0.500157
773 1 0.777807 0.393287 0.499855
774 1 0.764238 0.417026 0.501592
775 1 0.778092 0.441106 0.503168
776 1 0.764244 0.465417 0.506394
777 1 0.778497 0.488234 0.503568
815 1 0.805321 0.393513 0.501357
816 1 0.819905 0.417573 0.509623
817 1 0.805571 0.441168 0.508082
818 1 0.819946 0.464298 0.499654
819 1 0.805892 0.488862 0.506459
857 1 0.860887 0.393286 0.500661
858 1 0.84723 0.416495 0.505385
859 1 0.861136 0.439703 0.497915
860 1 0.847679 0.463434 0.500759
861 1 0.860718 0.488406 0.501164
899 1 0.88819 0.393096 0.503112
900 1 0.902754 0.41691 0.499517
901 1 0.888295 0.440265 0.502564
902 1 0.902529 0.463951 0.506051
903 1 0.888558 0.487127 0.501955
941 1 0.943729 0.392407 0.492808
942 1 0.930262 0.416588 0.493647
943 1 0.944481 0.440369 0.495496
944 1 0.930388 0.464282 0.499167
945 1 0.944187 0.488498 0.496449
983 1 0.972371 0.39225 0.492703
984 1 0.986048 0.415984 0.499328
985 1 0.972151 0.440592 0.497277
986 1 0.985664 0.463943 0.500584
987 1 0.97177 0.488201 0.496564
526 1 0.514185 0.512631 0.501673
527 1 0.5286 0.535279 0.506499
528 1 0.513645 0.559309 0.503926
529 1 0.527331 0.583979 0.502608
530 1 0.513494 0.607513 0.493738
568 1 0.571094 0.51242 0.504897
569 1 0.556176 0.535933 0.499834
570 1 0.569736 0.559861 0.50225
571 1 0.556036 0.58361 0.499685
572 1 0.569766 0.608577 0.501283
610 1 0.598193 0.513069 0.504048
611 1 0.612021 0.536641 0.502126
612 1 0.597589 0.559868 0.500449
613 1 0.611583 0.583726 0.499411
614 1 0.597891 0.608276 0.495174
652 1 0.654482 0.512035 0.500473
653 1 0.639935 0.534964 0.508113
654 1 0.652784 0.560481 0.508803
655 1 0.639694 0.584084 0.502122
656 1 0.65256 0.608161 0.506105
694 1 0.681377 0.512756 0.510543
695 1 0.694997 0.536453 0.509713
696 1 0.681664 0.560995 0.51107
697 1 0.69499 0.585243 0.508663
698 1 0.680176 0.608046 0.50847
736 1 0.73651 0.511525 0.503187
737 1 0.722615 0.535556 0.514065
738 1 0.736958 0.559422 0.511882
739 1 0.722975 0.583112 0.514365
740 1 0.736772 0.606894 0.507479
778 1 0.763619 0.511758 0.504516
779 1 0.778012 0.53577 0.502728
780 1 0.764113 0.559064 0.506972
781 1 0.777526 0.582741 0.510537
782 1 0.764302 0.606649 0.509926
820 1 0.820256 0.513316 0.504313
821 1 0.805973 0.536307 0.498778
822 1 0.820473 0.560292 0.505631
823 1 0.806049 0.58369 0.503846
824 1 0.819805 0.607145 0.505702
862 1 0.847685 0.512381 0.504778
863 1 0.862194 0.535709 0.503201
864 1 0.847936 0.559397 0.509914
865 1 0.862162 0.584123 0.511454
866 1 0.847868 0.608188 0.505369
904 1 0.902518 0.511947 0.497744
905 1 0.889479 0.536123 0.501405
906 1 0.903663 0.559577 0.502761
907 1 0.889749 0.584732 0.505316
908 1 0.90373 0.609082 0.49969
946 1 0.93095 0.511753 0.499802
947 1 0.944256 0.535535 0.498627
948 1 0.930647 0.559472 0.500678
949 1 0.944008 0.584385 0.49684
950 1 0.931175 0.607861 0.497571
988 1 0.985932 0.511917 0.500511
989 1 0.971558 0.535587 0.502894
990 1 0.985794 0.55929 0.496323
991 1 0.972168 0.584214 0.49191
992 1 0.986104 0.607859 0.493781
531 1 0.527963 0.631427 0.502743
532 1 0.513882 0.654523 0.501348
533 1 0.527349 0.678537 0.499829
534 1 0.51236 0.70217 0.497555
535 1 0.526425 0.726446 0.506214
536 1 0.512181 0.750491 0.496387
573 1 0.556061 0.631836 0.501965
574 1 0.56963 0.655539 0.505117
575 1 0.555682 0.679127 0.500679
576 1 0.569148 0.703209 0.50568
577 1 0.554092 0.727216 0.504297
578 1 0.569551 0.750788 0.502396
615 1 0.611558 0.632557 0.496465
616 1 0.596398 0.655851 0.499655
617 1 0.610505 0.679348 0.505537
618 1 0.596875 0.702537 0.502709
619 1 0.610606 0.726075 0.49655
620 1 0.59711 0.750323 0.505404
657 1 0.638491 0.631688 0.49628
658 1 0.65248 0.655085 0.496996
659 1 0.638679 0.678183 0.499767
660 1 0.652894 0.70182 0.498563
661 1 0.638604 0.725813 0.49941
699 1 0.694241 0.630965 0.509285
700 1 0.680189 0.654635 0.505833
701 1 0.695362 0.679046 0.500102
702 1 0.680534 0.701999 0.501255
703 1 0.694458 0.725913 0.513384
704 1 0.680773 0.75067 0.505754
741 1 0.722806 0.630903 0.506022
742 1 0.736669 0.654108 0.504418
743 1 0.722859 0.678599 0.50469
744 1 0.736974 0.701963 0.504625
745 1 0.72167 0.725324 0.509318
746 1 0.735541 0.749331 0.505823
783 1 0.778446 0.630543 0.504286
784 1 0.7644 0.654635 0.507016
785 1 0.778123 0.677745 0.510173
786 1 0.764921 0.701952 0.506465
787 1 0.778114 0.726245 0.503058
825 1 0.806584 0.630784 0.51039
826 1 0.820365 0.654879 0.510801
827 1 0.806679 0.678671 0.513027
828 1 0.820004 0.702286 0.512337
829 1 0.805609 0.725892 0.50519
867 1 0.862428 0.63138 0.507384
868 1 0.848299 0.65526 0.508856
869 1 0.862239 0.679005 0.502275
870 1 0.848183 0.703203 0.508144
871 1 0.861795 0.727126 0.506811
788 1 0.763951 0.750077 0.503499
830 1 0.819775 0.750147 0.506983
909 1 0.890601 0.632445 0.504137
910 1 0.903901 0.656293 0.497845
911 1 0.890435 0.678636 0.49739
912 1 0.90316 0.703584 0.497601
913 1 0.889738 0.727377 0.501202
914 1 0.903748 0.750359 0.5041
951 1 0.945304 0.631162 0.495746
952 1 0.931209 0.655675 0.495085
953 1 0.945312 0.679545 0.493596
954 1 0.932137 0.703533 0.493776
955 1 0.945822 0.727331 0.495384
993 1 0.972941 0.63186 0.492648
994 1 0.98637 0.655611 0.496635
995 1 0.973609 0.679517 0.492668
996 1 0.986628 0.703168 0.502222
997 1 0.973482 0.727048 0.499672
998 1 0.987409 0.751197 0.504011
537 1 0.527045 0.773702 0.499068
538 1 0.513134 0.796508 0.503469
539 1 0.527436 0.820897 0.504766
540 1 0.513083 0.844356 0.501673
541 1 0.526867 0.868144 0.493058
579 1 0.554407 0.773912 0.498489
580 1 0.568715 0.797965 0.49832
581 1 0.555056 0.82203 0.503743
582 1 0.569111 0.845097 0.496068
583 1 0.554492 0.868478 0.497157
621 1 0.6106 0.774058 0.502754
622 1 0.596548 0.797468 0.497709
623 1 0.610504 0.821619 0.494484
624 1 0.596691 0.846019 0.497253
625 1 0.610668 0.870001 0.499104
662 1 0.652257 0.750546 0.497148
663 1 0.638309 0.774174 0.501657
664 1 0.652015 0.798204 0.498716
665 1 0.638116 0.821759 0.499436
666 1 0.652625 0.84519 0.497757
667 1 0.637967 0.869745 0.493545
705 1 0.694635 0.774791 0.503371