LAMMPS data file via write_data, version 29 Oct 2020, timestep = 50

2400 atoms
1 atom types

0.0 98.4 xlo xhi
0.0 85.216899732389 ylo yhi
0.0 20.0 zlo zhi

Masses

1 12.011

Atoms # atomic

1 1 1.3882584283824666 2.230824085893254 0.0 0 0 0
2325 1 37.744438434794475 0.057939486234522365 0.0 0 1 0
4 1 1.996569472817615 1.041557568946137 0.0 0 0 0
6 1 5.154958574895926 1.2106908149091349 0.0 0 0 0
7 1 6.233978502176086 2.03085146870828 0.0 0 0 0
9 1 7.4862062615286495 1.5318925555622898 0.0 0 0 0
11 1 9.862357597372677 0.07736516095808117 0.0 0 0 0
12 1 9.931355825990583 1.476704541111636 0.0 0 0 0
13 1 11.149912995972308 2.107185865515354 0.0 0 0 0
14 1 12.341831226333094 0.01601238961545245 0.0 0 0 0
15 1 12.382800304003684 1.4268849207167107 0.0 0 0 0
16 1 13.582961339806612 2.1221262498813673 0.0 0 0 0
33 1 24.519281665885156 0.13042190406208987 0.0 0 0 0
19 1 14.771824982477371 1.3950831099307681 0.0 0 0 0
20 1 15.977878957309464 2.1122263292867713 0.0 0 0 0
22 1 17.208063214964906 0.050697629958919035 0.0 0 0 0
23 1 17.19803794085133 1.4400084597869511 0.0 0 0 0
24 1 18.400291904678635 2.145643364304434 0.0 0 0 0
1024 1 49.14184307798123 35.50887869732373 0.0 0 0 0
27 1 19.60513895706652 1.4419778100899008 0.0 0 0 0
28 1 20.76634010175514 2.2179526050996117 0.0 0 0 0
1244 1 27.164637619223992 42.584717328290985 0.0 0 0 0
31 1 24.510503291009783 2.884936157864027 0.0 0 0 0
604 1 0.08036088194869703 21.067476341838585 0.0 0 0 0
34 1 24.50723374207022 1.5030699246142671 0.0 0 0 0
37 1 29.39705098471032 0.33118571108913536 0.0 0 0 0
38 1 29.575616817535973 1.6642085143960192 0.0 0 0 0
40 1 31.753542419167182 1.5938304657278526 0.0 0 0 0
41 1 33.15705739728312 1.4222164506455888 0.0 0 0 0
42 1 34.505096606596375 1.4926828110394483 0.0 0 0 0
43 1 35.76253587172146 2.0147273233975542 0.0 0 0 0
45 1 37.04118379983053 1.3205945793577862 0.0 0 0 0
46 1 38.10312213188204 2.2559842272293724 0.0 0 0 0
661 1 49.10623836303347 22.74660302163475 0.0 0 0 0
1023 1 49.18700235811293 34.13372828420923 0.0 0 0 0
51 1 43.09902911221177 2.185993431999489 0.0 0 0 0
553 1 48.739992476952985 18.018138598424034 0.0 0 0 0
54 1 45.559546253240136 2.158050520085041 0.0 0 0 0
56 1 48.04174640473967 2.155771437996989 0.0 0 0 0
2 1 1.2469763695275613 3.6106021049150665 0.0 0 0 0
122 1 0.0241682774001434 4.291599325404614 0.0 0 0 0
1139 1 47.94870736687618 40.489235537238756 0.0 0 0 0
124 1 1.233217578967287 6.4341475696809995 0.0 0 0 0
126 1 2.419600027182128 4.356669079412546 0.0 0 0 0
127 1 2.451159673884253 5.746902299723499 0.0 0 0 0
5 1 3.661937772311331 3.7396402466625163 0.0 0 0 0
8 1 5.997951388818591 3.408219538453099 0.0 0 0 0
128 1 3.706987257003459 6.395006275109815 0.0 0 0 0
130 1 4.939927024538713 4.307209184492603 0.0 0 0 0
131 1 4.957929562244478 5.708487344532166 0.0 0 0 0
132 1 6.184602795802675 6.395387316326887 0.0 0 0 0
10 1 8.38800171972252 3.5559199412877267 0.0 0 0 0
134 1 7.404790150299931 5.718125400776017 0.0 0 0 0
135 1 8.534357706857511 4.898305202432675 0.0 0 0 0
136 1 9.82109081290511 5.409332666404518 0.0 0 0 0
137 1 10.867234287192325 6.249754503463077 0.0 0 0 0
139 1 12.400816703657489 4.197142682017613 0.0 0 0 0
17 1 13.57111182640356 3.519888025946899 0.0 0 0 0
21 1 15.987319797550754 3.511777130149963 0.0 0 0 0
140 1 13.534262486554361 6.366126289415391 0.0 0 0 0
142 1 14.77844663986751 4.22813806136314 0.0 0 0 0
143 1 14.731259879759694 5.629150879468382 0.0 0 0 0
144 1 15.926136821347491 6.384949833934929 0.0 0 0 0
25 1 18.428986511426476 3.5470431754064005 0.0 0 0 0
146 1 17.204265968535427 4.217947524574185 0.0 0 0 0
147 1 17.09790888650902 5.615733792101973 0.0 0 0 0
29 1 20.861768746204298 3.614472523423064 0.0 0 0 0
149 1 19.62722453506614 4.293921780653979 0.0 0 0 0
150 1 19.571013525233752 5.6438319045345215 0.0 0 0 0
152 1 22.09328430551117 4.278898329639966 0.0 0 0 0
153 1 22.105866125986367 5.633017743253905 0.0 0 0 0
32 1 23.29979033461488 3.5767736099555774 0.0 0 0 0
35 1 25.74976570695653 3.509237943055611 0.0 0 0 0
154 1 24.6 5.681126648826 0.0 0 0 0
36 1 28.226699175036952 3.718122464647971 0.0 0 0 0
156 1 26.924216349829624 4.242713797846945 0.0 0 0 0
157 1 26.81394273126259 5.595779742583046 0.0 0 0 0
39 1 30.69929153531427 3.636287606656147 0.0 0 0 0
159 1 29.486799613215787 4.284043014919558 0.0 0 0 0
160 1 29.579886125524236 5.651689634060358 0.0 0 0 0
161 1 29.61516419966293 7.027704893226168 0.0 0 0 0
163 1 32.08393150221332 3.3640642799072142 0.0 0 0 0
44 1 35.796630823066195 3.4631916992857343 0.0 0 0 0
164 1 33.29778905224458 6.404902268016172 0.0 0 0 0
166 1 34.59995933295342 4.224775489583371 0.0 0 0 0
167 1 34.461776899143615 5.623608419582046 0.0 0 0 0
168 1 35.66578347835203 6.354571255254268 0.0 0 0 0
47 1 38.18908609812597 3.6150586657842374 0.0 0 0 0
170 1 36.96163707104465 4.270154303739778 0.0 0 0 0
171 1 36.898818605697585 5.681187019194116 0.0 0 0 0
172 1 38.10800616147163 6.413763922184402 0.0 0 0 0
49 1 40.65975254171731 3.727064411459776 0.0 0 0 0
174 1 39.390643168787356 4.2806378929143625 0.0 0 0 0
175 1 39.283917843639195 5.66981671048033 0.0 0 0 0
176 1 41.93434404841035 4.275468794693722 0.0 0 0 0
177 1 42.02137960329859 5.687650418497372 0.0 0 0 0
52 1 43.12713631718971 3.53743431070187 0.0 0 0 0
55 1 45.556815605073886 3.507331790254489 0.0 0 0 0
178 1 43.207607911086974 6.377213971279475 0.0 0 0 0
179 1 44.36212775191796 4.216632184554358 0.0 0 0 0
180 1 44.36113872034918 5.629547013033618 0.0 0 0 0
57 1 47.95297615047095 3.567728716230667 0.0 0 0 0
181 1 46.739402638385215 4.241950975228436 0.0 0 0 0
182 1 46.71793632767862 5.59272772052299 0.0 0 0 0
125 1 1.2714221204816365 7.834443453421009 0.0 0 0 0
253 1 0.06781777393679501 8.565855811462722 0.0 0 0 0
257 1 2.501886769353798 8.506276241183972 0.0 0 0 0
129 1 3.7035236130505096 7.7976879092843845 0.0 0 0 0
133 1 6.149583768753013 7.787081331312391 0.0 0 0 0
259 1 4.918118053177342 8.46406318619624 0.0 0 0 0
263 1 7.270663838411546 8.63389593990524 0.0 0 0 0
138 1 10.894343471815407 7.591419218782251 0.0 0 0 0
267 1 10.10747518932648 8.670376383151703 0.0 0 0 0
141 1 13.51196507476896 7.738953729914395 0.0 0 0 0
145 1 15.908422643793445 7.79271302568009 0.0 0 0 0
273 1 14.684554875092342 8.508720974348664 0.0 0 0 0
148 1 18.359313873428846 7.917889310023444 0.0 0 0 0
277 1 17.09251745602735 8.540735309163056 0.0 0 0 0
151 1 20.881820254245554 7.809061511440724 0.0 0 0 0
280 1 19.644550670993972 8.471406497580581 0.0 0 0 0
283 1 22.114630268159658 8.418318537385995 0.0 0 0 0
155 1 25.991952784999125 7.683630460303618 0.0 0 0 0
287 1 24.757320370938963 8.294269541343509 0.0 0 0 0
158 1 28.427883679102788 7.722971359785157 0.0 0 0 0
290 1 27.225466470470675 8.373763599779208 0.0 0 0 0
162 1 30.799417929462894 7.730902867128153 0.0 0 0 0
294 1 31.957015340770155 8.47804706282606 0.0 0 0 0
165 1 33.20097015568909 7.811103694967748 0.0 0 0 0
169 1 35.63235439525952 7.7596920866435655 0.0 0 0 0
297 1 34.443525935269015 8.481442832045147 0.0 0 0 0
173 1 38.138699043480074 7.806755833031283 0.0 0 0 0
301 1 36.87646579766148 8.406075779481325 0.0 0 0 0
304 1 39.294364484896626 8.49737641833746 0.0 0 0 0
306 1 41.57478926468573 8.570469703630012 0.0 0 0 0
309 1 44.28 8.521689973239 0.0 0 0 0
183 1 47.80515014663444 7.623580281268415 0.0 0 0 0
310 1 47.150060588680056 8.758438564497421 0.0 0 0 0
254 1 0.04757971947759841 9.962072069785597 0.0 0 0 0
255 1 1.2582633368146872 10.695452967283215 0.0 0 0 0
256 1 1.2326858852258393 12.098747772652395 0.0 0 0 0
258 1 2.417922770247849 9.907475002492596 0.0 0 0 0
1138 1 46.78440255190611 39.81225493571775 0.0 0 0 0
375 1 2.372332297932038 12.930324392997116 0.0 0 0 0
260 1 5.024579945220399 9.85898036024609 0.0 0 0 0
261 1 6.140825510453403 10.720262786459422 0.0 0 0 0
262 1 5.881018166734179 12.078984488832516 0.0 0 0 0
379 1 5.3192291854991804 13.265601652530467 0.0 0 0 0
264 1 7.379449438154903 10.040882207691972 0.0 0 0 0
265 1 8.623795079094139 10.653197496703603 0.0 0 0 0
266 1 8.677995281875692 12.04924327336024 0.0 0 0 0
268 1 9.875019457054874 10.023537320256718 0.0 0 0 0
269 1 11.057397820769621 10.776059331020457 0.0 0 0 0
270 1 11.060487652036148 12.157161682922625 0.0 0 0 0
271 1 12.239722391132506 10.115286749365188 0.0 0 0 0
384 1 9.829437394407696 12.837368290775354 0.0 0 0 0
388 1 12.261866634818782 12.867204354052362 0.0 0 0 0
272 1 13.579511866139798 12.466600922217488 0.0 0 0 0
274 1 14.777001535088294 9.907091837089988 0.0 0 0 0
275 1 15.9249342130652 10.71503466586748 0.0 0 0 0
276 1 15.94902896447421 12.110669649245793 0.0 0 0 0
391 1 14.866532329482835 12.978683855768258 0.0 0 0 0
278 1 17.127386290575828 9.970135862082296 0.0 0 0 0
279 1 18.426906242302376 10.517099700817301 0.0 0 0 0
394 1 17.155532801774676 12.71386011854641 0.0 0 0 0
281 1 19.686725686983333 9.895666126921316 0.0 0 0 0
282 1 20.96796289078584 10.47719572586879 0.0 0 0 0
284 1 22.219531042723286 9.827533689493428 0.0 0 0 0
397 1 18.74322867946193 12.611331846945976 0.0 0 0 0
285 1 23.45805087144056 10.425778528526216 0.0 0 0 0
286 1 23.638753493685265 11.782977408733824 0.0 0 0 0
288 1 24.626302327136695 9.693409101215515 0.0 0 0 0
289 1 25.86172257545968 10.39224773998389 0.0 0 0 0
403 1 24.39233471202052 12.871397858074573 0.0 0 0 0
291 1 27.095378866321514 9.780670998901009 0.0 0 0 0
407 1 27.13364013268127 12.810916869245627 0.0 0 0 0
292 1 30.876640790441574 10.78730469167878 0.0 0 0 0
293 1 30.654819320678733 12.17103845920159 0.0 0 0 0
295 1 31.932656478552147 9.880228025024232 0.0 0 0 0
411 1 29.408364172583255 12.68612970937658 0.0 0 0 0
413 1 31.739327093749136 12.98558241499249 0.0 0 0 0
296 1 33.20016254966775 10.461334176808313 0.0 0 0 0
298 1 34.454023595384484 9.865374752589137 0.0 0 0 0
299 1 35.543034356950734 10.7083637651291 0.0 0 0 0
300 1 35.79948767975439 12.07217022315891 0.0 0 0 0
416 1 34.72086172796604 12.918088289103522 0.0 0 0 0
302 1 38.51531674767222 10.611812533093117 0.0 0 0 0
303 1 38.39130028488175 11.95960580148921 0.0 0 0 0
419 1 37.113879828878375 12.491635530715469 0.0 0 0 0
305 1 40.779667980257244 12.133852670181511 0.0 0 0 0
307 1 42.23006058868007 9.70522304418691 0.0 0 0 0
421 1 39.517434745392414 12.76581000615875 0.0 0 0 0
425 1 41.963717804518716 12.827897704009931 0.0 0 0 0
308 1 42.885150146634174 10.840081327416078 0.0 0 0 0
311 1 46.494789264685444 9.893191905054165 0.0 0 0 0
312 1 47.85752629732983 12.309036451597843 0.0 0 0 0
431 1 46.6788877474208 12.954299443252678 0.0 0 0 0
839 1 0.09218171790144461 29.80954220033979 0.0 0 0 0
373 1 1.1906369258633955 14.98237946066743 0.0 0 0 0
374 1 1.1116020816358638 16.331262682293435 0.0 0 0 0
376 1 2.438152300314057 14.337035461301959 0.0 0 0 0
377 1 3.584178502792196 15.122518841816868 0.0 0 0 0
378 1 4.64545586834153 15.938457232613587 0.0 0 0 0
380 1 5.827227244076392 16.57060285063955 0.0 0 0 0
381 1 7.369261159572589 14.13882143525274 0.0 0 0 0
382 1 8.50960841987064 14.863349475266695 0.0 0 0 0
383 1 8.447636961816546 16.26524618776918 0.0 0 0 0
385 1 9.732674749747417 14.217185041078139 0.0 0 0 0
386 1 10.899386715146155 14.950599159334454 0.0 0 0 0
387 1 10.864319005330497 16.316458267367008 0.0 0 0 0
389 1 12.08719566625382 14.247971600581065 0.0 0 0 0
390 1 13.252736811504832 16.301121519823415 0.0 0 0 0
392 1 15.194314464780975 14.380998081832953 0.0 0 0 0
393 1 15.894178495451497 15.502664599834036 0.0 0 0 0
395 1 17.969286043880345 14.10898366597527 0.0 0 0 0
396 1 18.24730884716318 16.256554141197903 0.0 0 0 0
398 1 19.57567669788076 13.978123559661164 0.0 0 0 0
399 1 20.876583814510727 14.27085705186554 0.0 0 0 0
400 1 22.19043881341355 14.41895586284617 0.0 0 0 0
401 1 23.445948852277773 14.978281049442753 0.0 0 0 0
402 1 23.502548759915427 16.337546516516763 0.0 0 0 0
404 1 24.592116736204957 14.220543116138838 0.0 0 0 0
405 1 25.82110655901012 14.837706028823177 0.0 0 0 0
406 1 25.905836048248457 16.241650513273743 0.0 0 0 0
408 1 27.04446117455062 14.15314032657404 0.0 0 0 0
409 1 28.163108517819623 15.001859064792377 0.0 0 0 0
410 1 28.239336902667716 16.4012898663846 0.0 0 0 0
412 1 30.624585053567756 16.435552360096082 0.0 0 0 0
414 1 33.26399345623665 15.065393812068123 0.0 0 0 0
415 1 33.12064168156112 16.427063782567075 0.0 0 0 0
417 1 33.78318854438838 13.849287797214346 0.0 0 0 0
418 1 35.49661924395045 16.672622911458493 0.0 0 0 0
420 1 38.28109215818271 14.81903683059224 0.0 0 0 0
422 1 39.4746998231249 14.18037097533545 0.0 0 0 0
423 1 40.678108136100995 14.928679138364842 0.0 0 0 0
424 1 40.71671003200694 16.318290361854597 0.0 0 0 0
426 1 41.8907541734227 14.200632527180055 0.0 0 0 0
427 1 43.183888779659746 16.53656098663096 0.0 0 0 0
428 1 44.240012862805756 14.384831704866812 0.0 0 0 0
429 1 45.422446889453646 15.029856987732055 0.0 0 0 0
430 1 45.55962354866359 16.411116128957804 0.0 0 0 0
432 1 46.61391772095275 14.34123126923263 0.0 0 0 0
433 1 47.77600311705903 15.03901991859615 0.0 0 0 0
497 1 0.0 18.463661608684 0.0 0 0 0
498 1 3.5578076434174846 19.34229751366308 0.0 0 0 0
500 1 4.806675579821772 18.865185315507535 0.0 0 0 0
501 1 6.047099420500165 19.34479833621742 0.0 0 0 0
503 1 7.1550834693415615 16.792883830225055 0.0 0 0 0
504 1 8.59324445134485 19.14282593588345 0.0 0 0 0
506 1 9.646051649216508 16.993707664126465 0.0 0 0 0
507 1 9.693446453524968 18.380377422909575 0.0 0 0 0
508 1 10.899721848592229 19.07349804626242 0.0 0 0 0
510 1 12.079705486393827 16.96947443911505 0.0 0 0 0
511 1 12.063565740526041 18.345282376024155 0.0 0 0 0
512 1 13.26146442278192 18.982244102700136 0.0 0 0 0
513 1 14.565441046679126 19.027935759460217 0.0 0 0 0
514 1 15.920283158873897 19.089350097109214 0.0 0 0 0
516 1 16.886384404978656 16.53627174394062 0.0 0 0 0
517 1 16.568623150018624 17.88116815324803 0.0 0 0 0
519 1 19.388030668609087 16.971714542907016 0.0 0 0 0
520 1 20.214906166324916 18.027218879409816 0.0 0 0 0
521 1 21.12868085845644 19.06940967075161 0.0 0 0 0
523 1 22.90389172499899 17.504672390542996 0.0 0 0 0
524 1 22.491788458611172 18.7975196627895 0.0 0 0 0
525 1 23.4266034957969 19.770427663299024 0.0 0 0 0
527 1 27.019499843406983 17.08860022976019 0.0 0 0 0
528 1 26.966281679106057 18.43308265626343 0.0 0 0 0
530 1 29.409786335050317 17.115944556661823 0.0 0 0 0
531 1 29.40122905960662 18.467654286772515 0.0 0 0 0
533 1 31.87910211182166 17.006613882222872 0.0 0 0 0
534 1 31.91126440437332 18.383512938788208 0.0 0 0 0
535 1 32.93454384493774 19.331207860307135 0.0 0 0 0
536 1 34.227857775913556 17.28008337094297 0.0 0 0 0
537 1 34.20578382015178 18.725144767029267 0.0 0 0 0
538 1 35.48166188796345 19.340071676673315 0.0 0 0 0
539 1 36.69400500871747 17.32134424556475 0.0 0 0 0
540 1 36.75443005459774 18.737718752137415 0.0 0 0 0
541 1 38.05321349587726 19.2432420103978 0.0 0 0 0
542 1 39.60429989979257 17.141805835068066 0.0 0 0 0
543 1 39.10427325454405 18.386432883696635 0.0 0 0 0
545 1 41.89961248524325 17.043144077793457 0.0 0 0 0
546 1 41.78222881365893 18.39746841591312 0.0 0 0 0
547 1 44.418439475614356 17.178745624379236 0.0 0 0 0
548 1 44.469501872161636 18.52645199774491 0.0 0 0 0
550 1 46.78562633225953 16.9747430218892 0.0 0 0 0
551 1 48.23351140678176 19.22818855703575 0.0 0 0 0
1136 1 45.530965299573346 40.453356080163076 0.0 0 0 0
499 1 2.722903773265249 20.35502349459369 0.0 0 0 0
502 1 7.252179053332815 19.924955448876844 0.0 0 0 0
505 1 8.642598187345431 20.72124869969841 0.0 0 0 0
509 1 10.996607366129151 20.466978328978733 0.0 0 0 0
609 1 9.873895444506287 21.3186116828247 0.0 0 0 0
610 1 10.013831836662126 22.710278286306377 0.0 0 0 0
613 1 12.25191463122933 21.104193903721175 0.0 0 0 0
614 1 12.382027013773486 22.467908039446886 0.0 0 0 0
515 1 16.44663866911317 20.351883846332633 0.0 0 0 0
615 1 14.83331384267571 22.19381666438137 0.0 0 0 0
518 1 18.718840834184792 20.834175349893744 0.0 0 0 0
618 1 17.443056489545352 21.279805268269126 0.0 0 0 0
619 1 17.161630445145228 22.637455897089566 0.0 0 0 0
522 1 20.849463713973552 20.42025853520719 0.0 0 0 0
621 1 19.617022992250305 23.202538920460704 0.0 0 0 0
624 1 21.584156679596532 21.533797046996483 0.0 0 0 0
625 1 21.964125407603863 22.85446858445533 0.0 0 0 0
526 1 25.481548977804895 20.158230774133035 0.0 0 0 0
627 1 24.96445071793999 21.36234558070787 0.0 0 0 0
628 1 24.645653461023254 22.713544476015898 0.0 0 0 0
529 1 28.70917860931698 20.50992667083982 0.0 0 0 0
631 1 26.99121309890293 23.03736050325243 0.0 0 0 0
532 1 31.092557041946336 21.010729659451933 0.0 0 0 0
634 1 29.744188011604507 21.375550298467807 0.0 0 0 0
635 1 29.505837209368277 22.74293394950181 0.0 0 0 0
638 1 32.397942669690146 20.624212893590915 0.0 0 0 0
641 1 36.959344371172136 22.753192519156382 0.0 0 0 0
544 1 40.53279514694885 20.575634225852806 0.0 0 0 0
644 1 39.37313251210965 21.321220210507697 0.0 0 0 0
645 1 39.353120653617225 22.736715397930283 0.0 0 0 0
648 1 41.741600596497946 21.23592193765827 0.0 0 0 0
649 1 41.83511474216839 22.641441874587592 0.0 0 0 0
549 1 45.574389016234505 20.577681076657786 0.0 0 0 0
652 1 44.368793840245466 21.235979865706767 0.0 0 0 0
653 1 44.269223243802536 22.638543328584664 0.0 0 0 0
552 1 48.04466152375282 20.599501873381595 0.0 0 0 0
656 1 46.81019235077321 21.24984870985652 0.0 0 0 0
657 1 46.728202284557796 22.66123327027784 0.0 0 0 0
605 1 1.23 23.434647426407 0.0 0 0 0
1135 1 44.33677127014311 39.77492372068727 0.0 0 0 0
724 1 3.3793520555788263 25.815708583358724 0.0 0 0 0
606 1 3.756139307536239 24.560036032886135 0.0 0 0 0
607 1 8.864089459480825 23.463941628469147 0.0 0 0 0
608 1 7.956850809552342 24.415490452619903 0.0 0 0 0
729 1 7.5183911204663225 25.65639825047764 0.0 0 0 0
611 1 11.272754107540031 23.3360852515935 0.0 0 0 0
612 1 11.495413945706822 24.700918444362475 0.0 0 0 0
734 1 11.897961913107968 25.948874081412324 0.0 0 0 0
616 1 15.848290432325747 23.085888495576317 0.0 0 0 0
617 1 15.543724886247878 24.4304008231815 0.0 0 0 0
737 1 15.118395137024713 25.685568370062974 0.0 0 0 0
620 1 18.2962497801573 23.415163354216663 0.0 0 0 0
622 1 20.8913213101117 23.713395707134065 0.0 0 0 0
623 1 20.920728651590874 25.070342552550294 0.0 0 0 0
743 1 19.75354894713105 25.75055238643962 0.0 0 0 0
746 1 22.137025355442457 25.703429481862763 0.0 0 0 0
626 1 23.321672367517685 23.126713002101663 0.0 0 0 0
629 1 25.71231002107751 23.59590424818787 0.0 0 0 0
630 1 25.57015931383121 24.93783935732216 0.0 0 0 0
632 1 28.304418459889515 23.45863277683604 0.0 0 0 0
633 1 28.466568055481133 24.856492593422505 0.0 0 0 0
636 1 30.653082609589475 23.557421669739924 0.0 0 0 0
637 1 30.796295025333663 24.941653648301376 0.0 0 0 0
756 1 29.602716797036898 25.654016333083376 0.0 0 0 0
760 1 32.00308871683215 25.59905471345605 0.0 0 0 0
639 1 33.17203677315021 23.49633553166124 0.0 0 0 0
640 1 33.17705456796821 24.842758882980597 0.0 0 0 0
764 1 34.343460431536286 25.605353189322823 0.0 0 0 0
642 1 38.125736190434274 23.433189238869094 0.0 0 0 0
643 1 38.15965959018367 24.833535037043657 0.0 0 0 0
768 1 37.101651926397956 25.729493110645784 0.0 0 0 0
646 1 40.626596575381775 23.369393708837222 0.0 0 0 0
647 1 40.674735446563865 24.765016186096247 0.0 0 0 0
772 1 39.44045249337905 25.39722219232572 0.0 0 0 0
774 1 41.87360663460661 25.457402513798126 0.0 0 0 0
650 1 43.050623862020586 23.315006437985524 0.0 0 0 0
651 1 43.047449586981905 24.708238980893775 0.0 0 0 0
654 1 45.49492522827368 23.33074148705436 0.0 0 0 0
655 1 45.48679535582121 24.722444752905957 0.0 0 0 0
776 1 44.256502306317145 25.36806823097608 0.0 0 0 0
658 1 47.89695317641844 23.421745637398594 0.0 0 0 0
659 1 47.90014662677096 24.823186171764455 0.0 0 0 0
780 1 46.6632302970248 25.486401326238404 0.0 0 0 0
721 1 0.4679300506424979 26.729594480680138 0.0 0 0 0
722 1 1.5243701387268729 27.612752730799468 0.0 0 0 0
723 1 1.176654672660077 28.94596936361517 0.0 0 0 0
725 1 2.7716734460736685 27.011636553431323 0.0 0 0 0
726 1 5.113248509954582 26.9030912346196 0.0 0 0 0
727 1 6.25184260305794 27.621720131173827 0.0 0 0 0
728 1 6.182437770297075 28.991852231725286 0.0 0 0 0
730 1 7.521836514084341 27.031290888448268 0.0 0 0 0
731 1 8.761954063404273 27.625185388899443 0.0 0 0 0
732 1 10.005531991236357 28.209495937953037 0.0 0 0 0
733 1 11.160878274456048 28.85286936164175 0.0 0 0 0
735 1 13.770357836114206 27.746888557793987 0.0 0 0 0
736 1 13.548807881141428 29.13158969057037 0.0 0 0 0
738 1 14.98995660892806 27.052543667595295 0.0 0 0 0
739 1 16.168821961256086 27.82877214958793 0.0 0 0 0
740 1 15.972334087776106 29.225461861077413 0.0 0 0 0
741 1 17.371070520437335 27.21966459773839 0.0 0 0 0
742 1 18.66011587809261 29.02176899849062 0.0 0 0 0
744 1 21.096510079323597 27.830075194249158 0.0 0 0 0
745 1 21.021904907203446 29.215899671190652 0.0 0 0 0
747 1 22.252105969444525 27.065753361025937 0.0 0 0 0
748 1 23.437749915763348 27.730312143885527 0.0 0 0 0
749 1 23.428876810924606 29.1240371283306 0.0 0 0 0
750 1 24.664309649616815 27.074287929843354 0.0 0 0 0
751 1 25.91334745686398 27.67291980116174 0.0 0 0 0
752 1 25.90656487430994 29.073292267147437 0.0 0 0 0
753 1 27.159898785531798 27.063843884053735 0.0 0 0 0
754 1 28.393543896586966 27.71511926820306 0.0 0 0 0
755 1 28.361417805882848 29.11217452285428 0.0 0 0 0
757 1 29.59399917839099 27.03083507231888 0.0 0 0 0
758 1 30.802744078770147 27.718239798987245 0.0 0 0 0
759 1 30.776589841611898 29.1133860299185 0.0 0 0 0
761 1 32.007664173186804 27.0025380355168 0.0 0 0 0
762 1 33.21227862973441 27.715639116478915 0.0 0 0 0
763 1 33.17557804913637 29.116583826567705 0.0 0 0 0
765 1 34.42066361572114 26.99762741374683 0.0 0 0 0
766 1 35.61748045940084 27.682664884071286 0.0 0 0 0
767 1 35.530641864670166 29.073289347046526 0.0 0 0 0
769 1 36.8595041684353 27.097288948053503 0.0 0 0 0
770 1 37.94779659412692 27.941909064500894 0.0 0 0 0
771 1 39.06065843299006 28.653539815356776 0.0 0 0 0
773 1 40.215984085855595 29.301270979655754 0.0 0 0 0
775 1 41.89074879323637 26.80834963221521 0.0 0 0 0
777 1 44.29563011826646 26.74729906152428 0.0 0 0 0
778 1 45.426923809954936 27.548521114429338 0.0 0 0 0
779 1 45.2143139994898 28.88779699334043 0.0 0 0 0
781 1 46.643217639228176 26.894543508954627 0.0 0 0 0
782 1 47.881762475872804 27.537084726321737 0.0 0 0 0
1122 1 32.36546310860026 39.61334396402719 0.0 0 0 0
840 1 0.3515506076881767 31.177708221232677 0.0 0 0 0
841 1 1.599108583775461 31.786575576860994 0.0 0 0 0
843 1 2.6834983490783038 30.978532139939812 0.0 0 0 0
844 1 4.990268418578554 29.719031339963454 0.0 0 0 0
845 1 4.983709162651135 31.070029821989973 0.0 0 0 0
846 1 5.781165671052671 32.14143919137852 0.0 0 0 0
848 1 7.342022403577053 29.685283269653695 0.0 0 0 0
849 1 8.525658280182348 32.07140042329968 0.0 0 0 0
851 1 12.286319694620929 29.712600128017527 0.0 0 0 0
852 1 12.286205152221877 31.112935440808123 0.0 0 0 0
853 1 12.770631028178112 32.371029444678264 0.0 0 0 0
855 1 14.754446562044508 29.876444870473936 0.0 0 0 0
856 1 16.061417129299176 31.979836733029646 0.0 0 0 0
858 1 17.2927341006168 31.39535199402922 0.0 0 0 0
859 1 18.550646873483604 32.02906589119787 0.0 0 0 0
861 1 19.772269499113982 29.794581302458088 0.0 0 0 0
862 1 19.640890131080614 31.17838271504665 0.0 0 0 0
863 1 22.24610554118086 29.890363624786755 0.0 0 0 0
864 1 22.270589819321668 31.23993830025969 0.0 0 0 0
866 1 24.671312510837616 29.739775978406538 0.0 0 0 0
867 1 24.736349784271138 31.12209131531791 0.0 0 0 0
868 1 25.904227339032946 31.862939116548397 0.0 0 0 0
870 1 27.12567048790265 29.778964373384778 0.0 0 0 0
871 1 27.128769931862884 31.182319683407822 0.0 0 0 0
872 1 28.34530186595312 31.88141986657962 0.0 0 0 0
874 1 29.568611702485928 29.813166250946836 0.0 0 0 0
875 1 29.572140050484816 31.210699978119237 0.0 0 0 0
876 1 30.790195996751518 31.907966271779234 0.0 0 0 0
878 1 31.976040167012698 29.816819203224295 0.0 0 0 0
879 1 31.99318134105765 31.209575309417765 0.0 0 0 0
880 1 33.195767987932726 31.91761936239086 0.0 0 0 0
882 1 34.36981080162881 29.83532833497284 0.0 0 0 0
883 1 34.401595990153375 31.217403963019443 0.0 0 0 0
884 1 35.61770999219345 31.88800726614518 0.0 0 0 0
886 1 36.88649861941116 31.261262027623744 0.0 0 0 0
887 1 38.108620673212236 31.909568758813414 0.0 0 0 0
890 1 41.23700357196164 30.130834918627958 0.0 0 0 0
891 1 42.0984680679343 31.14549501734621 0.0 0 0 0
892 1 43.18627194227349 31.98185447342985 0.0 0 0 0
894 1 44.541127142308625 30.01914747182634 0.0 0 0 0
895 1 44.42951588173937 31.376977497947625 0.0 0 0 0
896 1 45.616265010079445 32.074243857923065 0.0 0 0 0
898 1 46.7899597758314 31.41144003136581 0.0 0 0 0
842 1 1.8055830175202978 33.13736893831384 0.0 0 0 0
1133 1 42.719925235588505 41.95637523320417 0.0 0 0 0
966 1 2.41958211376409 34.309478811045764 0.0 0 0 0
967 1 2.567773711598399 35.66970824072319 0.0 0 0 0
847 1 6.083020096080618 33.47564582328392 0.0 0 0 0
970 1 4.973011321522522 34.31221815048364 0.0 0 0 0
971 1 4.932429352496591 35.686630226845466 0.0 0 0 0
850 1 8.532299798642068 33.42343790306994 0.0 0 0 0
974 1 7.321971958893628 34.12626088837079 0.0 0 0 0
975 1 7.321057674916278 35.535022180660796 0.0 0 0 0
978 1 9.698701868633743 34.108780737502556 0.0 0 0 0
980 1 12.44848131502603 34.77130589669374 0.0 0 0 0
981 1 11.657292800443681 35.81571676677318 0.0 0 0 0
854 1 13.296554800488956 33.67404623509848 0.0 0 0 0
857 1 15.962464863442248 33.39042201792137 0.0 0 0 0
983 1 14.676266508557434 33.89598544460211 0.0 0 0 0
860 1 18.530258520173295 33.434817524999936 0.0 0 0 0
985 1 17.232616232742153 34.01287679919411 0.0 0 0 0
987 1 19.669645084704598 34.154678083408704 0.0 0 0 0
988 1 22.205913869040128 34.32849716666977 0.0 0 0 0
989 1 21.351195198115622 35.325112072840795 0.0 0 0 0
865 1 23.386413407039562 33.68468946450097 0.0 0 0 0
869 1 25.85274252432123 33.22903604605505 0.0 0 0 0
991 1 24.7326780547081 34.019594152772065 0.0 0 0 0
992 1 25.046637519336027 35.36254688102082 0.0 0 0 0
873 1 28.33406449032761 33.28506453884228 0.0 0 0 0
995 1 27.086644367682084 33.883737403779435 0.0 0 0 0
877 1 30.813480687658977 33.30755593304865 0.0 0 0 0
997 1 29.565021497099586 33.9288922103647 0.0 0 0 0
999 1 32.00322126997295 34.025220625728146 0.0 0 0 0
1000 1 32.0030020392921 35.37534332109495 0.0 0 0 0
881 1 33.20236581732146 33.31278074611059 0.0 0 0 0
885 1 35.61665710021469 33.29844152008673 0.0 0 0 0
1002 1 34.41379589605008 33.997462463496014 0.0 0 0 0
1003 1 34.46802960726554 35.37736423604293 0.0 0 0 0
888 1 38.10571405235875 33.29512747174181 0.0 0 0 0
1006 1 36.88044118593024 33.934585381328084 0.0 0 0 0
889 1 40.73153728538026 33.35764256527486 0.0 0 0 0
1008 1 39.54052803207184 35.34745682580259 0.0 0 0 0
1011 1 41.90608071167402 34.025176549402765 0.0 0 0 0
1012 1 41.91737538968658 35.415671746299054 0.0 0 0 0
893 1 43.12747798905377 33.36961080382399 0.0 0 0 0
897 1 45.5346137447947 33.44037271265054 0.0 0 0 0
1015 1 44.314069715227006 34.11040644061171 0.0 0 0 0
1016 1 44.323128338578144 35.511971827382446 0.0 0 0 0
1019 1 46.68039135693412 34.21343803376495 0.0 0 0 0
1020 1 46.74346088011418 35.59705458679875 0.0 0 0 0
964 1 1.399423814815438 36.37858548977918 0.0 0 0 0
965 1 1.3345569305004754 37.754670466530776 0.0 0 0 0
1081 1 0.08201106884385073 38.337686788694114 0.0 0 0 0
1084 1 2.528818151432085 38.44012267483035 0.0 0 0 0
968 1 3.7487772835454045 36.37136470150043 0.0 0 0 0
969 1 3.7489603489247316 37.75742070543804 0.0 0 0 0
972 1 6.156127842007926 36.326453237102726 0.0 0 0 0
973 1 6.175815325987554 37.72809823652508 0.0 0 0 0
1088 1 4.9676224278351455 38.45046373519401 0.0 0 0 0
976 1 8.50183735860323 36.280245860993816 0.0 0 0 0
977 1 8.594097825862393 37.67478928602743 0.0 0 0 0
1092 1 7.394717015281046 38.42089543665181 0.0 0 0 0
979 1 11.059417572007284 37.76345887658971 0.0 0 0 0
1096 1 9.801926866092508 38.34179909469586 0.0 0 0 0
1099 1 12.30332218081392 38.365001543750815 0.0 0 0 0
982 1 13.567959991015606 37.77494272377289 0.0 0 0 0
984 1 15.984851094883778 37.675827309654494 0.0 0 0 0
1102 1 14.822144156726342 38.41093866935769 0.0 0 0 0
986 1 18.564991646373574 37.53489670318653 0.0 0 0 0
1105 1 17.252474479914653 37.26914911735544 0.0 0 0 0
1107 1 19.39338120104197 38.585614727411546 0.0 0 0 0
1110 1 22.25664226478819 38.39860080663483 0.0 0 0 0
990 1 23.48659758020665 37.81626700699534 0.0 0 0 0
993 1 25.820325439527565 36.445893129232616 0.0 0 0 0
994 1 25.854231565334196 37.79511550920873 0.0 0 0 0
1114 1 24.685300406885325 38.553828360240416 0.0 0 0 0
996 1 28.3543462576085 36.605493233627655 0.0 0 0 0
998 1 30.590144675439383 37.98000931654275 0.0 0 0 0
1119 1 29.435686675485456 37.424970388478144 0.0 0 0 0
1121 1 31.981855077464324 38.29324565205899 0.0 0 0 0
1001 1 32.87425449883456 37.29213977040461 0.0 0 0 0
1004 1 34.9969811905508 36.59719619603303 0.0 0 0 0
1005 1 35.8455822274508 37.61832262682753 0.0 0 0 0
1007 1 38.20034540703741 38.17429049571208 0.0 0 0 0
1126 1 36.87378329385154 38.529849578937785 0.0 0 0 0
1009 1 40.69497679641719 36.05083521137157 0.0 0 0 0
1010 1 40.636072885182294 37.43912810780823 0.0 0 0 0
1130 1 39.52997427773485 38.19899252956011 0.0 0 0 0
1013 1 43.0849233445828 36.16619714169387 0.0 0 0 0
1014 1 43.137442841976544 37.56413194917865 0.0 0 0 0
1017 1 45.51469488275615 36.28230939183912 0.0 0 0 0
1018 1 45.511796699946785 37.696728988743324 0.0 0 0 0
1134 1 44.273284667584306 38.37462775134749 0.0 0 0 0
1021 1 47.969462166132416 36.241146985235844 0.0 0 0 0
1022 1 47.90108838162717 37.633895724170486 0.0 0 0 0
1137 1 46.73545567036107 38.41091474689481 0.0 0 0 0
963 1 0.21431691473940037 35.67516035805783 0.0 0 0 0
660 1 49.19511578918048 21.378948768839987 0.0 0 0 0
1085 1 2.596292529132356 39.82396201346544 0.0 0 0 0
1132 1 41.82 39.767886541781 0.0 0 0 0
1208 1 2.4667653753676264 42.597055255270774 0.0 0 0 0
1086 1 3.765687692951291 40.57438350267004 0.0 0 0 0
1087 1 3.7078165145550375 41.9583005045198 0.0 0 0 0
1089 1 4.96632090646677 39.85476720021739 0.0 0 0 0
1090 1 6.172009826763595 40.54826738023013 0.0 0 0 0
1091 1 6.157463484226768 41.95181408127943 0.0 0 0 0